# vtk DataFile Version 3.0
Mesh_1
ASCII
DATASET UNSTRUCTURED_GRID
POINTS 2962 float
-50.000000 -50.000000 0
-50.000000 50.000000 0
50.000000 -50.000000 0
50.000000 50.000000 0
-50.000000 -48.750000 0
-50.000000 -47.500000 0
-50.000000 -46.250000 0
-50.000000 -45.000000 0
-50.000000 -43.750000 0
-50.000000 -42.500000 0
-50.000000 -41.250000 0
-50.000000 -40.000000 0
-50.000000 -38.750000 0
-50.000000 -37.500000 0
-50.000000 -36.250000 0
-50.000000 -35.000000 0
-50.000000 -33.750000 0
-50.000000 -32.500000 0
-50.000000 -31.250000 0
-50.000000 -30.000000 0
-50.000000 -28.750000 0
-50.000000 -27.500000 0
-50.000000 -26.250000 0
-50.000000 -25.000000 0
-50.000000 -23.750000 0
-50.000000 -22.500000 0
-50.000000 -21.250000 0
-50.000000 -20.000000 0
-50.000000 -18.750000 0
-50.000000 -17.500000 0
-50.000000 -16.250000 0
-50.000000 -15.000000 0
-50.000000 -13.750000 0
-50.000000 -12.500000 0
-50.000000 -11.250000 0
-50.000000 -10.000000 0
-50.000000 -8.750000 0
-50.000000 -7.500000 0
-50.000000 -6.250000 0
-50.000000 -5.000000 0
-50.000000 -3.750000 0
-50.000000 -2.500000 0
-50.000000 -1.250000 0
-50.000000 0.000000 0
-50.000000 1.250000 0
-50.000000 2.500000 0
-50.000000 3.750000 0
-50.000000 5.000000 0
-50.000000 6.250000 0
-50.000000 7.500000 0
-50.000000 8.750000 0
-50.000000 10.000000 0
-50.000000 11.250000 0
-50.000000 12.500000 0
-50.000000 13.750000 0
-50.000000 15.000000 0
-50.000000 16.250000 0
-50.000000 17.500000 0
-50.000000 18.750000 0
-50.000000 20.000000 0
-50.000000 21.250000 0
-50.000000 22.500000 0
-50.000000 23.750000 0
-50.000000 25.000000 0
-50.000000 26.250000 0
-50.000000 27.500000 0
-50.000000 28.750000 0
-50.000000 30.000000 0
-50.000000 31.250000 0
-50.000000 32.500000 0
-50.000000 33.750000 0
-50.000000 35.000000 0
-50.000000 36.250000 0
-50.000000 37.500000 0
-50.000000 38.750000 0
-50.000000 40.000000 0
-50.000000 41.250000 0
-50.000000 42.500000 0
-50.000000 43.750000 0
-50.000000 45.000000 0
-50.000000 46.250000 0
-50.000000 47.500000 0
-50.000000 48.750000 0
-48.750000 -50.000000 0
-47.500000 -50.000000 0
-46.250000 -50.000000 0
-45.000000 -50.000000 0
-43.750000 -50.000000 0
-42.500000 -50.000000 0
-41.250000 -50.000000 0
-40.000000 -50.000000 0
-38.750000 -50.000000 0
-37.500000 -50.000000 0
-36.250000 -50.000000 0
-35.000000 -50.000000 0
-33.750000 -50.000000 0
-32.500000 -50.000000 0
-31.250000 -50.000000 0
-30.000000 -50.000000 0
-28.750000 -50.000000 0
-27.500000 -50.000000 0
-26.250000 -50.000000 0
-25.000000 -50.000000 0
-23.750000 -50.000000 0
-22.500000 -50.000000 0
-21.250000 -50.000000 0
-20.000000 -50.000000 0
-18.750000 -50.000000 0
-17.500000 -50.000000 0
-16.250000 -50.000000 0
-15.000000 -50.000000 0
-13.750000 -50.000000 0
-12.500000 -50.000000 0
-11.250000 -50.000000 0
-10.000000 -50.000000 0
-8.750000 -50.000000 0
-7.500000 -50.000000 0
-6.250000 -50.000000 0
-5.000000 -50.000000 0
-3.750000 -50.000000 0
-2.500000 -50.000000 0
-1.250000 -50.000000 0
0.000000 -50.000000 0
1.250000 -50.000000 0
2.500000 -50.000000 0
3.750000 -50.000000 0
5.000000 -50.000000 0
6.250000 -50.000000 0
7.500000 -50.000000 0
8.750000 -50.000000 0
10.000000 -50.000000 0
11.250000 -50.000000 0
12.500000 -50.000000 0
13.750000 -50.000000 0
15.000000 -50.000000 0
16.250000 -50.000000 0
17.500000 -50.000000 0
18.750000 -50.000000 0
20.000000 -50.000000 0
21.250000 -50.000000 0
22.500000 -50.000000 0
23.750000 -50.000000 0
25.000000 -50.000000 0
26.250000 -50.000000 0
27.500000 -50.000000 0
28.750000 -50.000000 0
30.000000 -50.000000 0
31.250000 -50.000000 0
32.500000 -50.000000 0
33.750000 -50.000000 0
35.000000 -50.000000 0
36.250000 -50.000000 0
37.500000 -50.000000 0
38.750000 -50.000000 0
40.000000 -50.000000 0
41.250000 -50.000000 0
42.500000 -50.000000 0
43.750000 -50.000000 0
45.000000 -50.000000 0
46.250000 -50.000000 0
47.500000 -50.000000 0
48.750000 -50.000000 0
50.000000 -48.750000 0
50.000000 -47.500000 0
50.000000 -46.250000 0
50.000000 -45.000000 0
50.000000 -43.750000 0
50.000000 -42.500000 0
50.000000 -41.250000 0
50.000000 -40.000000 0
50.000000 -38.750000 0
50.000000 -37.500000 0
50.000000 -36.250000 0
50.000000 -35.000000 0
50.000000 -33.750000 0
50.000000 -32.500000 0
50.000000 -31.250000 0
50.000000 -30.000000 0
50.000000 -28.750000 0
50.000000 -27.500000 0
50.000000 -26.250000 0
50.000000 -25.000000 0
50.000000 -23.750000 0
50.000000 -22.500000 0
50.000000 -21.250000 0
50.000000 -20.000000 0
50.000000 -18.750000 0
50.000000 -17.500000 0
50.000000 -16.250000 0
50.000000 -15.000000 0
50.000000 -13.750000 0
50.000000 -12.500000 0
50.000000 -11.250000 0
50.000000 -10.000000 0
50.000000 -8.750000 0
50.000000 -7.500000 0
50.000000 -6.250000 0
50.000000 -5.000000 0
50.000000 -3.750000 0
50.000000 -2.500000 0
50.000000 -1.250000 0
50.000000 0.000000 0
50.000000 1.250000 0
50.000000 2.500000 0
50.000000 3.750000 0
50.000000 5.000000 0
50.000000 6.250000 0
50.000000 7.500000 0
50.000000 8.750000 0
50.000000 10.000000 0
50.000000 11.250000 0
50.000000 12.500000 0
50.000000 13.750000 0
50.000000 15.000000 0
50.000000 16.250000 0
50.000000 17.500000 0
50.000000 18.750000 0
50.000000 20.000000 0
50.000000 21.250000 0
50.000000 22.500000 0
50.000000 23.750000 0
50.000000 25.000000 0
50.000000 26.250000 0
50.000000 27.500000 0
50.000000 28.750000 0
50.000000 30.000000 0
50.000000 31.250000 0
50.000000 32.500000 0
50.000000 33.750000 0
50.000000 35.000000 0
50.000000 36.250000 0
50.000000 37.500000 0
50.000000 38.750000 0
50.000000 40.000000 0
50.000000 41.250000 0
50.000000 42.500000 0
50.000000 43.750000 0
50.000000 45.000000 0
50.000000 46.250000 0
50.000000 47.500000 0
50.000000 48.750000 0
-48.750000 50.000000 0
-47.500000 50.000000 0
-46.250000 50.000000 0
-45.000000 50.000000 0
-43.750000 50.000000 0
-42.500000 50.000000 0
-41.250000 50.000000 0
-40.000000 50.000000 0
-38.750000 50.000000 0
-37.500000 50.000000 0
-36.250000 50.000000 0
-35.000000 50.000000 0
-33.750000 50.000000 0
-32.500000 50.000000 0
-31.250000 50.000000 0
-30.000000 50.000000 0
-28.750000 50.000000 0
-27.500000 50.000000 0
-26.250000 50.000000 0
-25.000000 50.000000 0
-23.750000 50.000000 0
-22.500000 50.000000 0
-21.250000 50.000000 0
-20.000000 50.000000 0
-18.750000 50.000000 0
-17.500000 50.000000 0
-16.250000 50.000000 0
-15.000000 50.000000 0
-13.750000 50.000000 0
-12.500000 50.000000 0
-11.250000 50.000000 0
-10.000000 50.000000 0
-8.750000 50.000000 0
-7.500000 50.000000 0
-6.250000 50.000000 0
-5.000000 50.000000 0
-3.750000 50.000000 0
-2.500000 50.000000 0
-1.250000 50.000000 0
0.000000 50.000000 0
1.250000 50.000000 0
2.500000 50.000000 0
3.750000 50.000000 0
5.000000 50.000000 0
6.250000 50.000000 0
7.500000 50.000000 0
8.750000 50.000000 0
10.000000 50.000000 0
11.250000 50.000000 0
12.500000 50.000000 0
13.750000 50.000000 0
15.000000 50.000000 0
16.250000 50.000000 0
17.500000 50.000000 0
18.750000 50.000000 0
20.000000 50.000000 0
21.250000 50.000000 0
22.500000 50.000000 0
23.750000 50.000000 0
25.000000 50.000000 0
26.250000 50.000000 0
27.500000 50.000000 0
28.750000 50.000000 0
30.000000 50.000000 0
31.250000 50.000000 0
32.500000 50.000000 0
33.750000 50.000000 0
35.000000 50.000000 0
36.250000 50.000000 0
37.500000 50.000000 0
38.750000 50.000000 0
40.000000 50.000000 0
41.250000 50.000000 0
42.500000 50.000000 0
43.750000 50.000000 0
45.000000 50.000000 0
46.250000 50.000000 0
47.500000 50.000000 0
48.750000 50.000000 0
-48.750000 48.750000 0
-47.500000 48.750000 0
-46.250000 48.750000 0
-45.000000 48.750000 0
-43.750000 48.750000 0
-42.500000 48.750000 0
-41.250000 48.750000 0
-40.000000 48.750000 0
-38.750000 48.750000 0
-37.500000 48.750000 0
-36.250000 48.750000 0
-35.000000 48.750000 0
-33.750000 48.750000 0
-32.500000 48.750000 0
-31.250000 48.750000 0
-30.000000 48.750000 0
-28.750000 48.750000 0
-27.500000 48.750000 0
-26.250000 48.750000 0
-25.000000 48.750000 0
-23.750000 48.750000 0
-22.500000 48.750000 0
-21.250000 48.750000 0
-20.000000 48.750000 0
-18.750000 48.750000 0
-17.500000 48.750000 0
-16.250000 48.750000 0
-15.000000 48.750000 0
-13.750000 48.750000 0
-12.500000 48.750000 0
-11.250000 48.750000 0
-10.000000 48.750000 0
-8.750000 48.750000 0
-7.500000 48.750000 0
-6.250000 48.750000 0
-5.000000 48.750000 0
-3.750000 48.750000 0
-2.500000 48.750000 0
-1.250000 48.750000 0
0.000000 48.750000 0
1.250000 48.750000 0
2.500000 48.750000 0
3.750000 48.750000 0
5.000000 48.750000 0
6.250000 48.750000 0
7.500000 48.750000 0
8.750000 48.750000 0
10.000000 48.750000 0
11.250000 48.750000 0
12.500000 48.750000 0
13.750000 48.750000 0
15.000000 48.750000 0
16.250000 48.750000 0
17.500000 48.750000 0
18.750000 48.750000 0
20.000000 48.750000 0
21.250000 48.750000 0
22.500000 48.750000 0
23.750000 48.750000 0
25.000000 48.750000 0
26.250000 48.750000 0
27.500000 48.750000 0
28.750000 48.750000 0
30.000000 48.750000 0
31.250000 48.750000 0
32.500000 48.750000 0
33.750000 48.750000 0
35.000000 48.750000 0
36.250000 48.750000 0
37.500000 48.750000 0
38.750000 48.750000 0
40.000000 48.750000 0
41.250000 48.750000 0
42.500000 48.750000 0
43.750000 48.750000 0
45.000000 48.750000 0
46.250000 48.750000 0
47.500000 48.750000 0
48.750000 48.750000 0
-48.750000 47.500000 0
-47.500000 47.500000 0
-46.250000 47.500000 0
-45.000000 47.500000 0
-43.750000 47.500000 0
-42.500000 47.500000 0
-41.250000 47.500000 0
-40.000000 47.500000 0
-38.750000 47.500000 0
-37.500000 47.500000 0
-36.250000 47.500000 0
-35.000000 47.500000 0
-33.750000 47.500000 0
-32.500000 47.500000 0
-31.250000 47.500000 0
-30.000000 47.500000 0
-28.750000 47.500000 0
-27.500000 47.500000 0
-26.250000 47.500000 0
-25.000000 47.500000 0
-23.750000 47.500000 0
-22.500000 47.500000 0
-21.250000 47.500000 0
-20.000000 47.500000 0
-18.750000 47.500000 0
-17.500000 47.500000 0
-16.250000 47.500000 0
-15.000000 47.500000 0
-13.750000 47.500000 0
-12.500000 47.500000 0
-11.250000 47.500000 0
-10.000000 47.500000 0
-8.750000 47.500000 0
-7.500000 47.500000 0
-6.250000 47.500000 0
-5.000000 47.500000 0
-3.750000 47.500000 0
[...]
POINT_DATA 2962
SCALARS Temperature float 1
LOOKUP_TABLE default
200.000000
500.000000
200.000000
500.000000
205.413777
210.809490
216.168615
221.471743
226.698223
231.825927
236.831231
241.689293
246.374740
250.862789
255.130759
259.159729
262.935972
266.451804
269.705699
272.701736
275.448632
277.958598
280.246216
282.327467
284.218944
285.937266
287.498665
288.918719
290.212192
291.392967
292.474022
293.467463
294.384570
295.235873
296.031223
296.779885
297.490620
298.171775
298.831371
299.477192
300.116868
300.757966
301.408070
302.074879
302.766287
303.490476
304.256017
305.071960
305.947945
306.894305
307.922187
309.043666
310.271880
311.621161
313.107172
314.747051
316.559548
318.565158
320.786235
323.247072
325.973934
328.995013
332.340255
336.041042
340.129639
344.638359
349.598375
355.038149
360.981463
367.445178
374.436938
381.953220
389.978233
398.484133
407.432717
416.778290
426.470979
436.459743
446.694630
457.128139
467.715780
478.416026
489.189849
200.000000
200.000000
200.000000
200.000000
200.000000
200.000000
200.000000
200.000000
200.000000
200.000000
200.000000
200.000000
200.000000
200.000000
200.000000
200.000000
200.000000
200.000000
200.000000
200.000000
200.000000
200.000000
200.000000
200.000000
200.000000
200.000000
200.000000
200.000000
200.000000
200.000000
200.000000
200.000000
200.000000
200.000000
200.000000
200.000000
200.000000
200.000000
200.000000
200.000000
200.000000
200.000000
200.000000
200.000000
200.000000
200.000000
200.000000
200.000000
200.000000
200.000000
200.000000
200.000000
200.000000
200.000000
200.000000
200.000000
200.000000
200.000000
200.000000
200.000000
200.000000
200.000000
200.000000
200.000000
200.000000
200.000000
200.000000
200.000000
200.000000
200.000000
200.000000
200.000000
200.000000
200.000000
200.000000
200.000000
200.000000
200.000000
200.000000
205.838674
211.660472
217.447706
223.181048
228.838708
234.395652
239.823005
245.087866
250.153899
254.983101
259.538983
263.790750
267.717227
271.308873
274.567484
277.504235
280.137046
282.488013
284.581271
286.441421
288.092472
289.557179
290.856701
292.010450
293.036084
293.949576
294.765335
295.496346
296.154322
296.749859
297.292579
297.791274
298.254035
298.688382
299.101381
299.499750
299.889977
300.278418
300.671398
301.075320
301.496764
301.942596
302.420078
302.936985
303.501735
304.123517
304.812448
305.579726
306.437810
307.400617
308.483731
309.704636
311.082974
312.640808
314.402909
316.397036
318.654204
321.208908
324.099252
327.366915
331.056851
335.216579
339.894867
345.139604
350.994641
357.495523
364.664338
372.504444
380.996557
390.098140
399.747440
409.871320
420.393638
431.241588
442.349248
453.658760
465.119961
476.689178
488.327676
500.000000
500.000000
500.000000
500.000000
500.000000
500.000000
500.000000
500.000000
500.000000
500.000000
500.000000
500.000000
500.000000
500.000000
500.000000
500.000000
500.000000
500.000000
500.000000
500.000000
500.000000
500.000000
500.000000
500.000000
500.000000
500.000000
500.000000
500.000000
500.000000
500.000000
500.000000
500.000000
500.000000
500.000000
500.000000
500.000000
500.000000
500.000000
500.000000
500.000000
500.000000
500.000000
500.000000
500.000000
500.000000
500.000000
500.000000
500.000000
500.000000
500.000000
500.000000
500.000000
500.000000
500.000000
500.000000
500.000000
500.000000
500.000000
500.000000
500.000000
500.000000
500.000000
500.000000
500.000000
500.000000
500.000000
500.000000
500.000000
500.000000
500.000000
500.000000
500.000000
500.000000
500.000000
500.000000
500.000000
500.000000
500.000000
500.000000
489.171685
489.117652
489.029162
488.908657
488.759714
488.587121
488.396844
488.195820
487.991511
487.791233
487.601399
487.426890
487.270751
487.134261
487.017253
486.918540
486.836337
486.768588
486.713208
486.668230
486.631882
486.602624
486.579145
486.560346
486.545324
486.533336
486.523782
486.516174
486.510123
486.505314
486.501497
486.498473
486.496082
486.494199
486.492725
486.491581
486.490707
486.490057
486.489597
486.489302
486.489156
486.489151
486.489288
486.489574
486.490023
486.490660
486.491519
486.492644
486.494095
486.495949
486.498303
486.501281
486.505038
486.509771
486.515725
486.523205
486.532592
486.544358
486.559082
486.577474
486.600393
486.628866
486.664099
486.707476
486.760529
486.824874
486.902083
486.993484
487.099866
487.221113
487.355814
487.500944
487.651777
487.802141
487.945010
488.073253
488.180335
488.260838
488.310763
478.379238
478.269762
478.090339
477.845751
477.543079
477.191926
476.804434
476.394926
475.978991
475.572022
475.187475
474.835409
474.521853
474.249041
474.016209
473.820572
473.658221
473.524808
473.416015
473.327828
473.256675
473.199470
473.153608
473.116917
473.087613
473.064239
473.045616
473.030792
473.019002
473.009635
473.002202
472.996312
472.991656
472.987990
472.985119
472.982892
472.981191
472.979925
472.979029
472.978454
472.978169
472.978161
472.978428
472.978984
472.979859
472.981100
472.982771
472.984962
472.987787
472.991398
472.995982
473.001782
473.009101
473.018322
473.029923
473.044503
473.062806
473.085756
473.114495
473.150421
473.195232
473.250972
473.320055
473.405275
473.509766
473.636883
473.789975
473.971987
474.184865
474.428774
474.701200
474.996184
475.304022
475.611779
475.904647
476.167665
476.387250
476.552255
476.654537
467.659478
467.491820
467.216682
466.840929
466.374926
465.833069
465.234040
464.600457
463.957504
463.330391
462.741069
462.205417
461.732211
461.323842
460.977970
460.689318
460.451165
460.256407
460.098216
459.970393
459.867518
459.784975
459.718899
459.666101
459.623971
459.590392
459.563652
459.542375
459.525460
459.512023
459.501362
459.492917
459.486242
459.480985
459.476870
459.473677
459.471238
459.469424
459.468139
459.467315
459.466907
459.466895
459.467278
459.468075
459.469330
459.471108
459.473504
459.476644
459.480696
459.485872
459.492446
459.500764
459.511263
459.524493
459.541143
459.562077
459.588372
459.621367
459.662722
459.714481
459.779143
459.859735
459.959875
460.083805
460.236375
460.422917
460.648948
460.919623
461.238835
461.607916
462.024027
462.478571
462.956347
463.436305
463.894135
464.305510
464.648744
464.906396
465.065952
457.051073
456.821357
456.443642
455.926354
455.282628
454.531383
453.698201
452.815360
451.920178
451.050968
450.240992
449.512980
448.877732
448.336145
447.882510
447.507564
447.200715
446.951441
446.750049
446.588009
446.458031
446.354012
446.270913
446.204616
446.151779
446.109705
446.076223
446.049598
446.028438
446.011636
445.998308
445.987751
445.979409
445.972840
445.967697
445.963708
445.960661
445.958395
445.956789
445.955759
445.955250
445.955235
445.955713
445.956709
445.958276
445.960498
445.963492
445.967416
445.972479
445.978948
445.987165
445.997565
446.010694
446.027243
446.048079
446.074290
446.107237
446.148618
446.200546
446.265639
446.347124
446.448951
446.575903
446.733694
446.929014
447.169461
447.463276
447.818722
448.242935
448.740030
449.308422
449.937725
450.606492
451.282958
451.930077
452.511496
452.995821
453.358631
453.582916
446.595319
446.298892
445.810173
445.138220
444.297849
443.311635
442.212021
441.042602
439.856880
438.712311
437.658950
436.727779
435.929592
435.260495
434.708363
434.257713
433.892688
433.598592
433.362532
433.173563
433.022584
432.902128
432.806125
432.729672
432.668825
432.620424
432.581940
432.551354
432.527060
432.507775
432.492481
432.480371
432.470802
432.463268
432.457371
432.452796
432.449303
432.446704
432.444864
432.443683
432.443099
432.443082
432.443630
432.444772
432.446569
432.449116
432.452549
432.457050
432.462856
432.470276
432.479703
432.491636
432.506704
432.525706
432.549641
432.579768
432.617669
432.665322
432.725204
432.800404
432.894764
433.013041
433.161092
433.346055
433.576525
433.862638
434.215973
434.649056
435.174152
435.800846
436.531905
437.357415
438.248938
439.158959
440.031718
440.814578
441.464411
441.949391
442.248322
436.336681
435.968721
435.359937
434.518503
433.458912
432.205287
430.795647
429.286146
427.752430
426.282445
424.954720
423.809595
422.852362
422.067882
421.432733
420.922238
420.513734
420.187706
419.927922
419.721127
419.556614
419.425791
419.321788
419.239122
419.173426
419.121226
419.079757
419.046820
419.020671
418.999922
418.983472
418.970448
418.960160
418.952061
418.945721
418.940804
418.937049
418.934257
418.932278
418.931009
418.930382
418.930363
418.930952
418.932180
418.934111
418.936849
418.940539
418.945377
418.951620
418.959598
418.969735
418.982570
418.998783
419.019234
419.045009
419.077473
419.118348
419.169797
419.234544
419.316008
419.418485
419.547360
419.709368
419.912909
420.168393
420.488594
420.888921
421.387377
422.003773
422.757295
423.660939
424.711093
425.872885
427.072222
428.223258
429.250688
430.097856
430.726199
431.111733
426.322941
425.879373
425.142352
424.116944
422.814008
421.254953
419.479135
417.553905
415.584250
413.710320
412.067888
410.703519
409.602377
408.725938
408.032447
407.484774
407.052301
406.710578
406.440325
406.226408
406.056954
405.922636
405.816112
405.731600
405.664532
405.611297
405.569040
405.535500
405.508883
405.487770
405.471036
405.457791
405.447329
405.439094
405.432649
405.427650
405.423833
405.420995
405.418984
405.417694
405.417056
405.417037
405.417636
405.418883
405.420847
405.423630
405.427382
405.432300
405.438647
405.446760
405.457070
405.470126
405.486623
405.507440
405.533688
405.566768
405.608452
405.660976
405.727166
405.810600
405.915810
406.048544
406.216111
406.427820
406.695542
407.034425
407.463740
408.007757
408.696268
409.563622
410.643462
411.953133
413.459287
415.033786
416.538403
417.867059
418.950125
419.745815
420.230822
416.604732
416.083477
415.213154
413.992913
412.425223
410.521384
408.312032
405.866091
403.320344
400.906698
398.902994
397.334215
396.127691
395.201046
394.486345
393.932108
393.500120
393.161979
392.896390
392.687227
392.522159
392.391684
392.288427
392.206635
392.141803
392.090391
392.049608
392.017255
391.991590
391.971239
391.955113
391.942350
391.932271
391.924338
391.918130
391.913315
391.909639
391.906905
391.904968
391.903726
391.903112
391.903093
391.903670
391.904872
391.906763
391.909444
391.913057
391.917795
391.923909
391.931725
391.941659
391.954241
391.970143
391.990215
392.015534
392.047460
392.087716
392.138487
392.202545
392.283417
392.385609
392.514894
392.678713
392.886717
393.151531
393.489826
393.923856
394.483643
395.209919
396.157465
397.396153
398.998690
400.977345
403.065230
405.029510
406.729021
408.089770
409.076116
409.672102
407.234222
406.636648
405.633873
404.216333
402.372587
400.093326
397.381521
394.278081
390.924336
387.693133
385.303175
383.602657
382.373125
381.464208
380.779780
380.257193
379.854093
379.540827
379.296030
379.103950
378.952773
378.833515
378.739275
378.664710
378.605655
378.558854
378.521748
378.492321
378.468984
378.450483
378.435825
378.424226
378.415066
378.407858
378.402217
378.397842
378.394502
378.392018
378.390258
378.389129
378.388571
378.388555
378.389079
378.390171
378.391889
378.394325
378.397608
378.401913
378.407468
378.414571
378.423600
378.435037
378.449493
378.467744
378.490772
378.519821
378.556466
378.602711
378.661108
378.734915
378.828316
378.946712
379.097129
379.288805
379.534039
379.849490
380.258217
380.793038
381.502300
382.460167
383.784993
385.668130
388.386174
391.220279
393.785387
395.929743
397.603820
398.796775
399.510149
398.262791
397.595019
396.469358
394.865958
392.755468
390.097811
386.842646
382.940375
378.405787
373.638325
371.013914
369.400114
368.297943
367.502883
366.911373
366.462790
366.118230
365.851208
365.642952
365.479770
365.351466
365.250327
365.170449
365.107273
365.057254
365.017623
364.986207
364.961296
364.941543
364.925884
364.913478
364.903662
364.895911
364.889811
364.885037
364.881335
364.878508
364.876406
364.874917
364.873962
364.873490
364.873476
364.873919
364.874843
364.876297
364.878358
364.881137
364.884780
364.889481
364.895492
364.903133
364.912812
364.925048
364.940497
364.959991
364.984584
365.015615
365.054785
365.104261
365.166820
365.246028
365.346507
365.474286
365.637334
365.846330
366.115878
366.466484
366.927993
367.546076
368.395909
369.615523
371.502664
375.678939
379.644327
382.962014
385.600745
387.598993
388.997014
389.824281
389.737789
389.011280
387.782582
386.022671
383.685516
380.699804
376.950876
372.234986
366.120113
357.440464
355.048065
363.182592
368.716076
372.817598
375.912229
378.194391
379.768008
380.691822
381.698854
380.929729
379.627019
377.756630
375.264122
372.065012
368.026068
362.928579
356.399215
347.816832
345.261105
353.287286
359.219789
363.680072
367.036184
369.498334
371.188805
372.178441
374.174677
373.381762
372.039136
370.112708
367.549329
364.270053
360.159807
355.054047
348.731335
340.952116
338.280578
345.485657
351.195721
355.646719
359.054100
361.573956
363.310436
364.328693
367.181156
366.383506
365.035054
363.105738
360.550432
357.306065
353.289060
348.396466
342.519964
335.592341
332.840133
339.179044
344.430718
348.656983
351.959541
354.432953
356.150292
357.161557
360.721263
359.936052
358.611834
356.724759
354.240596
351.114714
347.293901
342.722794
337.359714
331.207462
328.405256
333.959668
338.691126
342.590953
345.694127
348.048022
349.696222
350.671719
354.786379
354.027606
352.751472
350.940867
348.572480
345.618295
342.049037
337.841094
332.988636
327.521188
324.697076
329.563248
333.783163
337.321576
340.177993
342.368788
343.914854
344.834455
349.358497
348.636523
347.425580
345.714757
343.490162
340.736949
337.442857
333.603910
329.232548
324.367180
321.546999
325.813086
329.556700
332.734197
335.327479
337.334285
338.759949
339.611642
344.412710
343.734407
342.599570
341.002418
338.936463
336.396482
333.381531
329.899139
325.970468
321.635427
318.842665
322.585396
325.896355
328.731034
331.063440
332.880924
334.179017
334.957298
339.919578
339.288826
338.235874
336.758883
334.856790
332.530986
329.787647
326.640649
323.114757
319.248352
316.503981
319.789477
322.712290
325.230144
327.314323
328.946955
330.117894
330.821956
335.847137
335.265446
334.296216
332.940450
331.200827
329.083024
326.597421
323.761053
320.599559
317.148614
314.470965
317.356242
319.933182
322.162929
324.016753
325.474677
326.523651
327.155779
332.162482
331.629606
330.743094
329.505873
327.923043
326.002865
323.757958
321.206584
318.373810
315.292243
312.696964
315.231343
317.501270
319.471636
321.115083
322.411351
323.346253
323.910593
328.832930
328.347400
327.540682
326.416905
324.982607
323.247434
321.224962
318.933517
316.396854
313.644507
311.144606
313.370896
315.368917
317.107262
318.560592
319.709389
320.539416
321.041088
325.826827
325.386384
324.655327
323.638459
322.343045
320.779303
318.960939
316.905667
314.635581
312.177290
309.783255
311.738717
313.496242
315.027904
316.310635
317.326198
318.060935
318.505436
323.114059
322.715981
322.055784
321.138559
319.971813
318.565792
316.933825
315.092631
313.062512
310.867363
308.587338
310.304474
311.849430
313.197475
314.327847
315.223831
315.872692
316.265515
320.666354
320.307700
319.713267
318.888179
317.839856
316.578227
315.115937
313.468520
311.654474
309.695206
307.535207
309.042412
310.399527
311.584721
312.579446
313.368587
313.940486
314.286896
318.457425
318.135195
317.601407
316.861035
315.921206
314.791321
313.483176
312.011039
310.391660
308.644179
306.608338
307.930438
309.121547
310.162435
311.036629
311.730586
312.233770
312.538675
316.462991
316.174251
315.696129
315.033348
314.192612
313.182677
312.014407
310.700799
309.256946
307.699933
305.790742
306.949454
307.993789
308.906842
309.674048
310.283356
310.725334
310.993226
314.660742
314.402686
313.975511
313.383617
312.633217
311.732367
310.690976
309.520804
308.235393
306.849965
305.068530
306.082848
306.997314
307.797097
308.469366
309.003456
309.390983
309.625920
313.030238
312.800243
312.419610
311.892390
311.224274
310.422596
309.496328
308.456046
307.313858
306.083294
304.429570
305.316095
306.115520
306.814866
307.402864
307.870119
308.209223
308.414834
311.552796
311.348438
311.010297
310.542061
309.948892
309.237414
308.415695
307.493195
306.480698
305.390201
303.863216
304.636440
305.333806
305.943982
306.457105
306.864934
307.160955
307.340464
310.211347
310.030414
309.731079
309.316666
308.791817
308.162474
307.435842
306.620342
305.725537
304.762033
303.360088
304.032641
304.639284
305.170150
305.616640
305.971557
306.229200
306.385449
308.990298
308.830793
308.566938
308.201705
307.739238
307.184824
306.544857
305.826794
305.039074
304.191037
302.911892
303.494753
304.020539
304.480692
304.867750
305.175452
305.398840
305.534322
307.875388
307.735521
307.504174
307.183980
306.778607
306.292724
305.731970
305.102902
304.412929
303.670231
302.511260
303.013941
303.467426
303.864332
304.198214
304.463661
304.656385
304.773275
306.853545
306.731730
306.530255
306.251435
305.898485
305.475495
304.987398
304.439916
303.839508
303.193293
302.151625
302.582325
302.970891
303.310996
303.597112
303.824596
303.989763
304.089943
305.912757
305.807599
305.633683
305.393020
305.088401
304.723374
304.302209
303.829856
303.311893
302.754463
301.827099
302.192842
302.522817
302.811650
303.054641
303.247846
303.388129
303.473218
305.041939
304.952225
304.803857
304.598561
304.338727
304.027392
303.668209
303.265407
302.823746
302.348466
301.532379
301.839129
302.115886
302.358144
302.561958
302.724018
302.841689
302.913064
304.230815
304.155504
304.030961
303.858639
303.640552
303.379258
303.077827
302.739815
302.369219
301.970436
301.262649
301.515407
301.743456
301.943080
302.111031
302.244577
302.341546
302.400365
303.469801
303.408016
303.305844
303.164481
302.985586
302.771260
302.524027
302.246807
301.942880
301.615852
301.013509
301.216394
301.399449
301.559691
301.694509
301.801712
301.879554
301.926772
302.749895
302.700914
302.619918
302.507857
302.366050
302.196168
302.000214
301.780505
301.539643
301.280485
300.780892
300.937213
301.078256
301.201723
301.305604
301.388207
301.448187
301.484571
302.062580
302.025828
301.965055
301.880979
301.774591
301.647148
301.500157
301.335357
301.154702
300.960335
300.561005
300.673309
300.774639
300.863343
300.937976
300.997324
301.040418
301.066559
301.399719
301.374762
301.333496
301.276412
301.204186
301.117676
301.017907
300.906064
300.783474
300.651591
300.350262
300.420380
300.483647
300.539033
300.585635
300.622693
300.649603
300.665927
300.753462
300.740004
300.717756
300.686987
300.648066
300.601462
300.547732
300.487519
300.421539
300.350575
300.145227
300.174301
300.200537
300.223507
300.242837
300.258210
300.269375
300.276148
300.116158
300.114037
300.110538
300.105713
300.099629
300.092373
300.084041
300.074741
300.064588
300.053704
299.942556
299.931059
299.920692
299.911622
299.903996
299.897936
299.893538
299.890871
299.480265
299.489449
299.504647
299.525696
299.552365
299.584359
299.621317
299.662816
299.708370
299.757440
299.738943
299.686688
299.639549
299.598293
299.563589
299.536000
299.515970
299.503821
298.838259
298.858847
298.892906
298.940059
298.999776
299.071381
299.154054
299.246834
299.348635
299.458249
299.531068
299.437202
299.352523
299.278411
299.216068
299.166504
299.130520
299.108695
298.182554
298.214772
298.268072
298.341858
298.435300
298.547337
298.676682
298.821833
298.981087
299.152556
299.315535
299.178527
299.054931
298.946760
298.855768
298.783429
298.730910
298.699057
297.505409
297.549616
297.622751
297.724000
297.852228
298.005984
298.183503
298.382729
298.601325
298.836698
299.088826
298.906440
298.741916
298.597929
298.476815
298.380534
298.310635
298.268242
296.798848
296.855532
296.949315
297.079163
297.243631
297.440866
297.668619
297.924256
298.204784
298.506877
298.847232
298.616493
298.408362
298.226224
298.073031
297.951255
297.862853
297.809240
296.054567
296.124349
296.239814
296.399706
296.602265
296.845231
297.125850
297.440893
297.786678
298.159108
298.586796
298.303937
298.048814
297.825575
297.637831
297.488604
297.380282
297.314592