# vtk DataFile Version 3.0
Mesh_1
ASCII
DATASET UNSTRUCTURED_GRID
POINTS 2962 float
-50.000000 -50.000000 0
-50.000000 50.000000 0
50.000000 -50.000000 0
50.000000 50.000000 0
-50.000000 -48.750000 0
-50.000000 -47.500000 0
-50.000000 -46.250000 0
-50.000000 -45.000000 0
-50.000000 -43.750000 0
-50.000000 -42.500000 0
-50.000000 -41.250000 0
-50.000000 -40.000000 0
-50.000000 -38.750000 0
-50.000000 -37.500000 0
-50.000000 -36.250000 0
-50.000000 -35.000000 0
-50.000000 -33.750000 0
-50.000000 -32.500000 0
-50.000000 -31.250000 0
-50.000000 -30.000000 0
-50.000000 -28.750000 0
-50.000000 -27.500000 0
-50.000000 -26.250000 0
-50.000000 -25.000000 0
-50.000000 -23.750000 0
-50.000000 -22.500000 0
-50.000000 -21.250000 0
-50.000000 -20.000000 0
-50.000000 -18.750000 0
-50.000000 -17.500000 0
-50.000000 -16.250000 0
-50.000000 -15.000000 0
-50.000000 -13.750000 0
-50.000000 -12.500000 0
-50.000000 -11.250000 0
-50.000000 -10.000000 0
-50.000000 -8.750000 0
-50.000000 -7.500000 0
-50.000000 -6.250000 0
-50.000000 -5.000000 0
-50.000000 -3.750000 0
-50.000000 -2.500000 0
-50.000000 -1.250000 0
-50.000000 0.000000 0
-50.000000 1.250000 0
-50.000000 2.500000 0
-50.000000 3.750000 0
-50.000000 5.000000 0
-50.000000 6.250000 0
-50.000000 7.500000 0
-50.000000 8.750000 0
-50.000000 10.000000 0
-50.000000 11.250000 0
-50.000000 12.500000 0
-50.000000 13.750000 0
-50.000000 15.000000 0
-50.000000 16.250000 0
-50.000000 17.500000 0
-50.000000 18.750000 0
-50.000000 20.000000 0
-50.000000 21.250000 0
-50.000000 22.500000 0
-50.000000 23.750000 0
-50.000000 25.000000 0
-50.000000 26.250000 0
-50.000000 27.500000 0
-50.000000 28.750000 0
-50.000000 30.000000 0
-50.000000 31.250000 0
-50.000000 32.500000 0
-50.000000 33.750000 0
-50.000000 35.000000 0
-50.000000 36.250000 0
-50.000000 37.500000 0
-50.000000 38.750000 0
-50.000000 40.000000 0
-50.000000 41.250000 0
-50.000000 42.500000 0
-50.000000 43.750000 0
-50.000000 45.000000 0
-50.000000 46.250000 0
-50.000000 47.500000 0
-50.000000 48.750000 0
-48.750000 -50.000000 0
-47.500000 -50.000000 0
-46.250000 -50.000000 0
-45.000000 -50.000000 0
-43.750000 -50.000000 0
-42.500000 -50.000000 0
-41.250000 -50.000000 0
-40.000000 -50.000000 0
-38.750000 -50.000000 0
-37.500000 -50.000000 0
-36.250000 -50.000000 0
-35.000000 -50.000000 0
-33.750000 -50.000000 0
-32.500000 -50.000000 0
-31.250000 -50.000000 0
-30.000000 -50.000000 0
-28.750000 -50.000000 0
-27.500000 -50.000000 0
-26.250000 -50.000000 0
-25.000000 -50.000000 0
-23.750000 -50.000000 0
-22.500000 -50.000000 0
-21.250000 -50.000000 0
-20.000000 -50.000000 0
-18.750000 -50.000000 0
-17.500000 -50.000000 0
-16.250000 -50.000000 0
-15.000000 -50.000000 0
-13.750000 -50.000000 0
-12.500000 -50.000000 0
-11.250000 -50.000000 0
-10.000000 -50.000000 0
-8.750000 -50.000000 0
-7.500000 -50.000000 0
-6.250000 -50.000000 0
-5.000000 -50.000000 0
-3.750000 -50.000000 0
-2.500000 -50.000000 0
-1.250000 -50.000000 0
0.000000 -50.000000 0
1.250000 -50.000000 0
2.500000 -50.000000 0
3.750000 -50.000000 0
5.000000 -50.000000 0
6.250000 -50.000000 0
7.500000 -50.000000 0
8.750000 -50.000000 0
10.000000 -50.000000 0
11.250000 -50.000000 0
12.500000 -50.000000 0
13.750000 -50.000000 0
15.000000 -50.000000 0
16.250000 -50.000000 0
17.500000 -50.000000 0
18.750000 -50.000000 0
20.000000 -50.000000 0
21.250000 -50.000000 0
22.500000 -50.000000 0
23.750000 -50.000000 0
25.000000 -50.000000 0
26.250000 -50.000000 0
27.500000 -50.000000 0
28.750000 -50.000000 0
30.000000 -50.000000 0
31.250000 -50.000000 0
32.500000 -50.000000 0
33.750000 -50.000000 0
35.000000 -50.000000 0
36.250000 -50.000000 0
37.500000 -50.000000 0
38.750000 -50.000000 0
40.000000 -50.000000 0
41.250000 -50.000000 0
42.500000 -50.000000 0
43.750000 -50.000000 0
45.000000 -50.000000 0
46.250000 -50.000000 0
47.500000 -50.000000 0
48.750000 -50.000000 0
50.000000 -48.750000 0
50.000000 -47.500000 0
50.000000 -46.250000 0
50.000000 -45.000000 0
50.000000 -43.750000 0
50.000000 -42.500000 0
50.000000 -41.250000 0
50.000000 -40.000000 0
50.000000 -38.750000 0
50.000000 -37.500000 0
50.000000 -36.250000 0
50.000000 -35.000000 0
50.000000 -33.750000 0
50.000000 -32.500000 0
50.000000 -31.250000 0
50.000000 -30.000000 0
50.000000 -28.750000 0
50.000000 -27.500000 0
50.000000 -26.250000 0
50.000000 -25.000000 0
50.000000 -23.750000 0
50.000000 -22.500000 0
50.000000 -21.250000 0
50.000000 -20.000000 0
50.000000 -18.750000 0
50.000000 -17.500000 0
50.000000 -16.250000 0
50.000000 -15.000000 0
50.000000 -13.750000 0
50.000000 -12.500000 0
50.000000 -11.250000 0
50.000000 -10.000000 0
50.000000 -8.750000 0
50.000000 -7.500000 0
50.000000 -6.250000 0
50.000000 -5.000000 0
50.000000 -3.750000 0
50.000000 -2.500000 0
50.000000 -1.250000 0
50.000000 0.000000 0
50.000000 1.250000 0
50.000000 2.500000 0
50.000000 3.750000 0
50.000000 5.000000 0
50.000000 6.250000 0
50.000000 7.500000 0
50.000000 8.750000 0
50.000000 10.000000 0
50.000000 11.250000 0
50.000000 12.500000 0
50.000000 13.750000 0
50.000000 15.000000 0
50.000000 16.250000 0
50.000000 17.500000 0
50.000000 18.750000 0
50.000000 20.000000 0
50.000000 21.250000 0
50.000000 22.500000 0
50.000000 23.750000 0
50.000000 25.000000 0
50.000000 26.250000 0
50.000000 27.500000 0
50.000000 28.750000 0
50.000000 30.000000 0
50.000000 31.250000 0
50.000000 32.500000 0
50.000000 33.750000 0
50.000000 35.000000 0
50.000000 36.250000 0
50.000000 37.500000 0
50.000000 38.750000 0
50.000000 40.000000 0
50.000000 41.250000 0
50.000000 42.500000 0
50.000000 43.750000 0
50.000000 45.000000 0
50.000000 46.250000 0
50.000000 47.500000 0
50.000000 48.750000 0
-48.750000 50.000000 0
-47.500000 50.000000 0
-46.250000 50.000000 0
-45.000000 50.000000 0
-43.750000 50.000000 0
-42.500000 50.000000 0
-41.250000 50.000000 0
-40.000000 50.000000 0
-38.750000 50.000000 0
-37.500000 50.000000 0
-36.250000 50.000000 0
-35.000000 50.000000 0
-33.750000 50.000000 0
-32.500000 50.000000 0
-31.250000 50.000000 0
-30.000000 50.000000 0
-28.750000 50.000000 0
-27.500000 50.000000 0
-26.250000 50.000000 0
-25.000000 50.000000 0
-23.750000 50.000000 0
-22.500000 50.000000 0
-21.250000 50.000000 0
-20.000000 50.000000 0
-18.750000 50.000000 0
-17.500000 50.000000 0
-16.250000 50.000000 0
-15.000000 50.000000 0
-13.750000 50.000000 0
-12.500000 50.000000 0
-11.250000 50.000000 0
-10.000000 50.000000 0
-8.750000 50.000000 0
-7.500000 50.000000 0
-6.250000 50.000000 0
-5.000000 50.000000 0
-3.750000 50.000000 0
-2.500000 50.000000 0
-1.250000 50.000000 0
0.000000 50.000000 0
1.250000 50.000000 0
2.500000 50.000000 0
3.750000 50.000000 0
5.000000 50.000000 0
6.250000 50.000000 0
7.500000 50.000000 0
8.750000 50.000000 0
10.000000 50.000000 0
11.250000 50.000000 0
12.500000 50.000000 0
13.750000 50.000000 0
15.000000 50.000000 0
16.250000 50.000000 0
17.500000 50.000000 0
18.750000 50.000000 0
20.000000 50.000000 0
21.250000 50.000000 0
22.500000 50.000000 0
23.750000 50.000000 0
25.000000 50.000000 0
26.250000 50.000000 0
27.500000 50.000000 0
28.750000 50.000000 0
30.000000 50.000000 0
31.250000 50.000000 0
32.500000 50.000000 0
33.750000 50.000000 0
35.000000 50.000000 0
36.250000 50.000000 0
37.500000 50.000000 0
38.750000 50.000000 0
40.000000 50.000000 0
41.250000 50.000000 0
42.500000 50.000000 0
43.750000 50.000000 0
45.000000 50.000000 0
46.250000 50.000000 0
47.500000 50.000000 0
48.750000 50.000000 0
-48.750000 48.750000 0
-47.500000 48.750000 0
-46.250000 48.750000 0
-45.000000 48.750000 0
-43.750000 48.750000 0
-42.500000 48.750000 0
-41.250000 48.750000 0
-40.000000 48.750000 0
-38.750000 48.750000 0
-37.500000 48.750000 0
-36.250000 48.750000 0
-35.000000 48.750000 0
-33.750000 48.750000 0
-32.500000 48.750000 0
-31.250000 48.750000 0
-30.000000 48.750000 0
-28.750000 48.750000 0
-27.500000 48.750000 0
-26.250000 48.750000 0
-25.000000 48.750000 0
-23.750000 48.750000 0
-22.500000 48.750000 0
-21.250000 48.750000 0
-20.000000 48.750000 0
-18.750000 48.750000 0
-17.500000 48.750000 0
-16.250000 48.750000 0
-15.000000 48.750000 0
-13.750000 48.750000 0
-12.500000 48.750000 0
-11.250000 48.750000 0
-10.000000 48.750000 0
-8.750000 48.750000 0
-7.500000 48.750000 0
-6.250000 48.750000 0
-5.000000 48.750000 0
-3.750000 48.750000 0
-2.500000 48.750000 0
-1.250000 48.750000 0
0.000000 48.750000 0
1.250000 48.750000 0
2.500000 48.750000 0
3.750000 48.750000 0
5.000000 48.750000 0
6.250000 48.750000 0
7.500000 48.750000 0
8.750000 48.750000 0
10.000000 48.750000 0
11.250000 48.750000 0
12.500000 48.750000 0
13.750000 48.750000 0
15.000000 48.750000 0
16.250000 48.750000 0
17.500000 48.750000 0
18.750000 48.750000 0
20.000000 48.750000 0
21.250000 48.750000 0
22.500000 48.750000 0
23.750000 48.750000 0
25.000000 48.750000 0
26.250000 48.750000 0
27.500000 48.750000 0
28.750000 48.750000 0
30.000000 48.750000 0
31.250000 48.750000 0
32.500000 48.750000 0
33.750000 48.750000 0
35.000000 48.750000 0
36.250000 48.750000 0
37.500000 48.750000 0
38.750000 48.750000 0
40.000000 48.750000 0
41.250000 48.750000 0
42.500000 48.750000 0
43.750000 48.750000 0
45.000000 48.750000 0
46.250000 48.750000 0
47.500000 48.750000 0
48.750000 48.750000 0
-48.750000 47.500000 0
-47.500000 47.500000 0
-46.250000 47.500000 0
-45.000000 47.500000 0
-43.750000 47.500000 0
-42.500000 47.500000 0
-41.250000 47.500000 0
-40.000000 47.500000 0
-38.750000 47.500000 0
-37.500000 47.500000 0
-36.250000 47.500000 0
-35.000000 47.500000 0
-33.750000 47.500000 0
-32.500000 47.500000 0
-31.250000 47.500000 0
-30.000000 47.500000 0
-28.750000 47.500000 0
-27.500000 47.500000 0
-26.250000 47.500000 0
-25.000000 47.500000 0
-23.750000 47.500000 0
-22.500000 47.500000 0
-21.250000 47.500000 0
-20.000000 47.500000 0
-18.750000 47.500000 0
-17.500000 47.500000 0
-16.250000 47.500000 0
-15.000000 47.500000 0
-13.750000 47.500000 0
-12.500000 47.500000 0
-11.250000 47.500000 0
-10.000000 47.500000 0
-8.750000 47.500000 0
-7.500000 47.500000 0
-6.250000 47.500000 0
-5.000000 47.500000 0
-3.750000 47.500000 0
[...]
POINT_DATA 2962
SCALARS Temperature float 1
LOOKUP_TABLE default
200.000000
500.000000
200.000000
500.000000
205.399481
210.780910
216.125762
221.414649
226.626940
231.740529
236.731809
241.575953
246.247597
250.721971
254.976407
258.991997
262.755031
266.257844
269.498928
272.482386
275.216954
277.714863
279.990717
282.060517
283.940876
285.648432
287.199435
288.609482
289.893356
291.064954
292.137274
293.122437
294.031739
294.875723
295.664257
296.406619
297.111583
297.787508
298.442430
299.084140
299.720282
300.358430
301.006179
301.671236
302.361501
303.085165
303.850803
304.667471
305.544812
306.493164
307.523673
308.648419
309.880538
311.234361
312.725550
314.371241
316.190179
318.202855
320.431615
322.900747
325.636509
328.667079
332.022396
335.733829
339.833630
344.354097
349.326388
354.778948
360.735541
367.213009
374.218977
381.749902
389.789975
398.311337
407.275768
416.637562
426.346832
436.352522
446.604663
457.055729
467.661196
478.379496
489.171544
200.000000
200.000000
200.000000
200.000000
200.000000
200.000000
200.000000
200.000000
200.000000
200.000000
200.000000
200.000000
200.000000
200.000000
200.000000
200.000000
200.000000
200.000000
200.000000
200.000000
200.000000
200.000000
200.000000
200.000000
200.000000
200.000000
200.000000
200.000000
200.000000
200.000000
200.000000
200.000000
200.000000
200.000000
200.000000
200.000000
200.000000
200.000000
200.000000
200.000000
200.000000
200.000000
200.000000
200.000000
200.000000
200.000000
200.000000
200.000000
200.000000
200.000000
200.000000
200.000000
200.000000
200.000000
200.000000
200.000000
200.000000
200.000000
200.000000
200.000000
200.000000
200.000000
200.000000
200.000000
200.000000
200.000000
200.000000
200.000000
200.000000
200.000000
200.000000
200.000000
200.000000
200.000000
200.000000
200.000000
200.000000
200.000000
200.000000
205.837191
211.657510
217.443269
223.175144
228.831348
234.386850
239.812777
245.076227
250.140864
254.968686
259.523202
263.773618
267.698759
271.289088
274.546400
277.481874
280.113433
282.463172
284.555231
286.414214
288.064128
289.527733
290.826189
291.978911
293.003557
293.916103
294.730960
295.461113
296.118279
296.713054
297.255062
297.753095
298.215248
298.649042
299.061542
299.459470
299.849313
300.237428
300.630143
301.033861
301.455163
301.900915
302.378379
302.895333
303.460194
304.082152
304.771324
305.538908
306.397364
307.360608
308.444223
309.665697
311.044667
312.603199
314.366062
316.361014
318.619070
321.174725
324.066081
327.334816
331.025883
335.186799
339.866332
345.112369
350.968758
357.471044
364.641312
372.482918
380.976577
390.079751
399.730689
409.856253
420.380302
431.230032
442.339521
453.650909
465.114027
476.685199
488.325680
500.000000
500.000000
500.000000
500.000000
500.000000
500.000000
500.000000
500.000000
500.000000
500.000000
500.000000
500.000000
500.000000
500.000000
500.000000
500.000000
500.000000
500.000000
500.000000
500.000000
500.000000
500.000000
500.000000
500.000000
500.000000
500.000000
500.000000
500.000000
500.000000
500.000000
500.000000
500.000000
500.000000
500.000000
500.000000
500.000000
500.000000
500.000000
500.000000
500.000000
500.000000
500.000000
500.000000
500.000000
500.000000
500.000000
500.000000
500.000000
500.000000
500.000000
500.000000
500.000000
500.000000
500.000000
500.000000
500.000000
500.000000
500.000000
500.000000
500.000000
500.000000
500.000000
500.000000
500.000000
500.000000
500.000000
500.000000
500.000000
500.000000
500.000000
500.000000
500.000000
500.000000
500.000000
500.000000
500.000000
500.000000
500.000000
500.000000
489.153463
489.099745
489.011773
488.891970
488.743894
488.572309
488.383154
488.183334
487.980276
487.781258
487.592657
487.419318
487.264264
487.128756
487.012617
486.914662
486.833110
486.765913
486.710998
486.666409
486.630385
486.601395
486.578136
486.559520
486.544647
486.532782
486.523328
486.515803
486.509819
486.505065
486.501293
486.498306
486.495945
486.494087
486.492632
486.491504
486.490644
486.490004
486.489552
486.489263
486.489122
486.489121
486.489261
486.489548
486.489998
486.490634
486.491491
486.492614
486.494062
486.495911
486.498259
486.501230
486.504978
486.509700
486.515640
486.523104
486.532472
486.544214
486.558910
486.577268
486.600148
486.628573
486.663751
486.707062
486.760038
486.824295
486.901404
486.992692
487.098949
487.220063
487.354623
487.499609
487.650302
487.800534
487.943284
488.071426
488.178429
488.258879
488.308778
478.342931
478.234103
478.055724
477.812546
477.511612
477.162481
476.777241
476.370151
475.956730
475.552293
475.170218
474.820498
474.509107
474.238247
474.007137
473.812995
473.651924
473.519595
473.411713
473.324286
473.253764
473.197081
473.151649
473.115312
473.086298
473.063163
473.044735
473.030071
473.018413
473.009153
473.001806
472.995988
472.991391
472.987772
472.984939
472.982743
472.981067
472.979822
472.978942
472.978379
472.978104
472.978103
472.978375
472.978934
472.979810
472.981049
472.982718
472.984904
472.987723
472.991324
472.995897
473.001683
473.008985
473.018184
473.029759
473.044307
473.062572
473.085477
473.114162
473.150022
473.194756
473.250404
473.319378
473.404470
473.508810
473.635754
473.788648
473.970437
474.183068
474.426708
474.698853
474.993550
475.301105
475.608596
475.901224
476.164039
476.383465
476.548361
476.650589
467.605272
467.438608
467.165051
466.791426
466.328047
465.789243
465.193620
464.563700
463.924557
463.301281
462.715699
462.183582
461.713620
461.308155
460.964830
460.678374
460.442092
460.248912
460.092039
459.965313
459.863347
459.781554
459.716096
459.663805
459.622092
459.588853
459.562393
459.541345
459.524617
459.511334
459.500797
459.492454
459.485862
459.480673
459.476613
459.473465
459.471062
459.469277
459.468015
459.467208
459.466815
459.466813
459.467202
459.468003
459.469259
459.471036
459.473428
459.476562
459.480604
459.485767
459.492325
459.500622
459.511096
459.524296
459.540909
459.561798
459.588038
459.620968
459.662245
459.713911
459.778461
459.858921
459.958903
460.082648
460.235001
460.421290
460.647030
460.917375
461.236219
461.604899
462.020584
462.474693
462.952040
463.431592
463.889057
464.300123
464.643115
464.900600
465.060072
456.979201
456.750834
456.375248
455.860822
455.220624
454.473493
453.644908
452.767024
451.877009
451.013003
450.208088
449.484829
448.853904
448.316148
447.865840
447.493736
447.189288
446.942025
446.742307
446.581652
446.452817
446.349740
446.267415
446.201753
446.149436
446.107788
446.074655
446.048315
446.027389
446.010777
445.997604
445.987175
445.978936
445.972451
445.967377
445.963443
445.960441
445.958211
445.956634
445.955627
445.955135
445.955132
445.955618
445.956620
445.958189
445.960409
445.963397
445.967314
445.972365
445.978818
445.987015
445.997389
446.010487
446.026997
446.047787
446.073943
446.106822
446.148121
446.199951
446.264927
446.346273
446.447933
446.574687
446.732244
446.927287
447.167410
447.460849
447.815864
448.239590
448.736150
449.303969
449.932681
450.600863
451.276776
451.923398
452.504396
452.988391
453.350973
453.575140
446.506052
446.211338
445.725306
445.056962
444.221047
443.240042
442.146271
440.983174
439.804067
438.666171
437.619281
436.694130
435.901347
435.236967
434.688872
434.241630
433.879452
433.587720
433.353614
433.166255
433.016600
432.897230
432.802118
432.726394
432.666144
432.618231
432.580146
432.549888
432.525860
432.506793
432.491677
432.479712
432.470262
432.462824
432.457005
432.452494
432.449052
432.446495
432.444687
432.443531
432.442967
432.442964
432.443522
432.444670
432.446469
432.449014
432.452442
432.456933
432.462725
432.470128
432.479531
432.491435
432.506468
432.525425
432.549307
432.579371
432.617194
432.664754
432.724524
432.799589
432.893788
433.011874
433.159694
433.344383
433.574528
433.860258
434.213142
434.645702
435.170200
435.796222
436.526554
437.351304
438.242072
439.151380
440.023500
440.805820
441.455230
441.939916
442.238693
436.230324
435.864442
435.258913
434.421849
433.367665
432.120382
430.717888
429.216169
427.690645
426.228964
424.909272
423.771515
422.820759
422.041812
421.411306
420.904667
420.499343
420.175930
419.918289
419.713250
419.550174
419.420526
419.317484
419.235603
419.170550
419.118875
419.077834
419.045248
419.019385
418.998870
418.982611
418.969743
418.959581
418.951586
418.945330
418.940481
418.936781
418.934032
418.932089
418.930847
418.930241
418.930237
418.930837
418.932070
418.934004
418.936740
418.940424
418.945252
418.951480
418.959439
418.969551
418.982355
418.998530
419.018934
419.044652
419.077048
419.117839
419.169188
419.233815
419.315134
419.417437
419.546103
419.707861
419.911102
420.166227
420.486000
420.885817
421.383671
421.999365
422.752081
423.654830
424.704036
425.864881
427.063326
428.213568
429.240329
430.086975
430.714957
431.100299
426.199820
425.758698
425.025502
424.005234
422.708672
421.157123
419.389813
417.473929
415.514220
413.650482
412.017926
410.662394
409.568766
408.698547
408.010144
407.466611
407.037503
406.698514
406.430485
406.218379
406.050400
405.917283
405.811741
405.728029
405.661614
405.608912
405.567091
405.533906
405.507579
405.486704
405.470164
405.457076
405.446743
405.438613
405.432252
405.427323
405.423561
405.420767
405.418792
405.417529
405.416913
405.416909
405.417519
405.418773
405.420738
405.423520
405.427265
405.432173
405.438505
405.446599
405.456884
405.469909
405.486367
405.507136
405.533326
405.566337
405.607936
405.660358
405.726426
405.809713
405.914745
406.047265
406.214574
406.425972
406.693320
407.031750
407.460518
408.003876
408.691596
409.558014
410.636774
411.945270
413.450250
415.023655
416.527308
417.855159
418.937599
419.732857
420.217632
416.465192
415.946748
415.080817
413.866485
412.306138
410.410980
408.211536
405.776594
403.242757
400.841599
398.850193
397.291883
396.093780
395.173804
394.464385
393.914350
393.485724
393.150284
392.886876
392.679478
392.515842
392.386531
392.284221
392.203201
392.138998
392.088099
392.047736
392.015724
391.990338
391.970215
391.954274
391.941664
391.931708
391.923876
391.917749
391.913001
391.909377
391.906686
391.904784
391.903568
391.902974
391.902971
391.903558
391.904765
391.906658
391.909337
391.912945
391.917673
391.923773
391.931570
391.941480
391.954033
391.969897
391.989924
392.015187
392.047046
392.087221
392.137894
392.201834
392.282564
392.384584
392.513662
392.677229
392.884929
393.149373
393.487216
393.920692
394.479794
395.205222
396.151715
397.389117
398.990176
400.967377
403.053938
405.017069
406.715632
408.075650
409.061490
409.657204
407.078619
406.484217
405.486392
404.075513
402.240061
399.970635
397.270119
394.179350
390.839631
387.623792
385.250013
383.561674
382.341068
381.438825
380.759500
380.240889
379.840926
379.530161
379.287368
379.096905
378.947035
378.828838
378.735460
378.661596
378.603113
378.556778
378.520051
378.490934
378.467850
378.449555
378.435066
378.423604
378.414556
378.407439
378.401872
378.397557
378.394265
378.391820
378.390091
378.388986
378.388447
378.388444
378.388977
378.390074
378.391794
378.394228
378.397506
378.401802
378.407346
378.414431
378.423438
378.434848
378.449270
378.467481
378.490458
378.519446
378.556018
378.602175
378.660464
378.734142
378.827386
378.945593
379.095780
379.287177
379.532069
379.847099
380.255302
380.789462
381.497874
382.454622
383.777943
385.659111
388.375343
391.207872
393.771644
395.914910
397.588150
398.780528
399.493592
398.091495
397.427245
396.307074
394.711064
392.609779
389.963050
386.720454
382.832363
378.313720
373.564785
370.965002
369.364192
368.270353
367.481211
366.894131
366.448961
366.107080
365.842185
365.635630
365.473817
365.346620
365.246378
365.167228
365.104644
365.055108
365.015871
364.984775
364.960126
364.940586
364.925101
364.912838
364.903137
364.895480
364.889457
364.884746
364.881094
364.878309
364.876239
364.874776
364.873842
364.873385
364.873382
364.873833
364.874762
364.876218
364.878277
364.881051
364.884687
364.889378
364.895374
364.902997
364.912653
364.924860
364.940274
364.959726
364.984268
365.015237
365.054332
365.103718
365.166167
365.245244
365.345562
365.473148
365.635958
365.844663
366.113852
366.464009
366.924945
367.542274
368.391062
369.609063
371.493164
375.667229
379.630809
382.946991
385.584501
387.581813
388.979191
389.806109
389.551182
388.828531
387.605844
385.854019
383.526929
380.553153
376.817916
372.117350
366.019281
357.357521
355.037454
363.169837
368.701412
372.801304
375.894603
378.175740
379.748649
380.672079
381.497331
380.732388
379.436188
377.574548
375.092920
371.906691
367.882478
362.801384
356.289838
347.726315
345.249584
353.273507
359.203986
363.662527
367.017204
369.478248
371.167953
372.157172
373.958651
373.170230
371.834591
369.917547
367.365827
364.100336
360.005824
354.917537
348.613781
340.854689
338.268220
345.470895
351.178809
355.627951
359.033801
361.552474
363.288135
364.305944
366.951056
366.158201
364.817195
362.897874
360.354977
357.125269
353.124982
348.250940
342.394568
335.488372
332.826981
339.163338
344.412733
348.637030
351.937963
354.410119
356.126586
357.137373
360.477540
359.697413
358.381084
356.504592
354.033563
350.923190
347.120056
342.568567
337.226783
331.097229
328.391342
333.943055
338.672105
342.569855
345.671314
348.023881
349.671158
350.646150
354.529502
353.776092
352.508274
350.708819
348.354266
345.416413
341.865772
337.678488
332.848464
327.404943
324.682432
329.545764
333.763146
337.299376
340.153988
342.343387
343.888482
344.807551
349.088955
348.372611
347.170395
345.471270
343.261185
340.525100
337.250531
333.433251
329.085426
324.245167
321.531655
325.794766
329.535729
332.710938
335.302330
337.307673
338.732321
339.583455
344.131010
343.458594
342.332878
340.747950
338.697155
336.175069
333.180515
329.720762
325.816685
321.507888
318.826652
322.566277
325.874469
328.706761
331.037196
332.853153
334.150184
334.927883
339.626242
339.001624
337.958170
336.493907
334.607597
332.300424
329.578321
326.454893
322.954610
319.115534
316.487330
319.769596
322.689531
325.204903
327.287033
328.918077
330.087912
330.791367
335.542704
334.967382
334.008012
332.665455
330.942211
328.843742
326.380174
323.568266
320.433348
317.010767
314.453706
317.335636
319.909595
322.136768
323.988468
325.444746
326.492575
327.124073
331.847504
331.321222
330.444913
329.221360
327.655476
325.755299
323.533189
321.007121
318.201842
315.149621
312.679130
315.210051
317.476896
319.444604
321.085855
322.380422
323.314140
323.877830
328.507974
328.029250
327.233061
326.123386
324.706570
322.992031
320.993078
318.727738
316.219441
313.497369
311.126230
313.348956
315.343802
317.079408
318.530475
319.677519
320.506326
321.007326
325.492470
325.059034
324.338813
323.336456
322.059031
320.516519
318.722353
316.693941
314.453040
312.025899
309.764370
311.716169
313.470430
314.999277
316.279682
317.293443
318.026926
318.470735
322.770888
322.380007
321.730933
320.828603
319.680321
318.296090
316.688959
314.875332
312.875166
310.711986
308.567977
310.281358
311.822967
313.168126
314.296113
315.190249
315.837824
316.229938
320.314969
319.963686
319.380646
318.570812
317.541395
316.302077
314.865218
313.246027
311.462650
309.536115
307.515404
309.018767
310.372461
311.554701
312.546987
313.334238
313.904821
314.250505
318.098430
317.783735
317.261589
316.536803
315.616291
314.509201
313.227036
311.783735
310.195689
308.481649
306.588126
307.906307
309.093923
310.131797
311.003501
311.695527
312.197368
312.501532
316.097000
315.815944
315.349694
314.702804
313.881763
312.895067
311.753284
310.469074
309.057163
307.534241
305.770157
306.924877
307.965655
308.875638
309.640308
310.247649
310.688258
310.955394
314.288372
314.038139
313.623045
313.047320
312.316960
311.439754
310.425312
309.285049
308.032136
306.681392
305.047607
306.057867
306.968716
307.765379
308.435070
308.967161
309.353296
309.587464
312.652114
312.430065
312.061703
311.550905
310.903138
310.125471
309.226568
308.216657
307.107467
305.912122
304.408343
305.290751
306.086507
306.782687
307.368070
307.833296
308.170987
308.375818
311.169545
310.973244
310.647543
310.195953
309.623410
308.936270
308.142286
307.250569
306.271516
305.216715
303.841721
304.610775
305.304426
305.911395
306.421869
306.827644
307.122234
307.300952
309.823599
309.650821
309.364074
308.966503
308.462525
307.857806
307.159234
306.374877
305.513908
304.586517
303.338359
304.006698
304.609585
305.137209
305.581021
305.933861
306.190057
306.345506
308.598685
308.447419
308.196280
307.848060
307.406672
306.877127
306.265501
305.578890
304.825343
304.013777
302.889964
303.468573
303.990569
304.447451
304.831805
305.137411
305.359338
305.494013
307.480542
307.348986
307.130462
306.827423
306.443304
305.982496
305.450317
304.852961
304.197441
303.491514
302.489170
302.987566
303.437232
303.830843
304.162001
304.425337
304.616588
304.732663
306.456099
306.342652
306.154088
305.892537
305.560982
305.163233
304.703898
304.188336
303.622608
303.013405
302.129406
302.555797
302.940522
303.277313
303.560689
303.786048
303.949734
304.049095
305.513342
305.416596
305.255657
305.032351
304.749234
304.409574
304.017313
303.577038
303.093926
302.573690
301.804788
302.166204
302.492322
302.777825
303.018065
303.209136
303.347931
303.432196
304.641184
304.559913
304.424568
304.236688
303.998429
303.712547
303.382365
303.011748
302.605055
302.167092
301.510009
301.812420
302.085311
302.324230
302.525286
302.685205
302.801385
302.871934
303.829345
303.762496
303.651001
303.496128
303.299656
303.063859
302.791482
302.485712
302.150145
301.788744
301.240256
301.488670
301.712847
301.909130
302.074319
302.205722
302.301197
302.359189
303.068238
303.014920
302.925801
302.801893
302.644619
302.455797
302.237624
301.992653
301.723763
301.434124
300.991126
301.189670
301.368855
301.525756
301.657814
301.762874
301.839223
301.885613
302.348857
302.308334
302.240376
302.145749
302.025536
301.881125
301.714194
301.526691
301.320818
301.099000
300.758553
300.910541
301.047722
301.167856
301.268980
301.349445
301.407934
301.443491
301.662677
301.634361
301.586592
301.519902
301.435048
301.333005
301.214954
301.082269
300.936504
300.779370
300.538744
300.646731
300.744211
300.829593
300.901480
300.958696
301.000304
301.025621
301.001555
300.985001
300.956685
300.916913
300.866128
300.804908
300.733953
300.654085
300.566232
300.471418
300.328112
300.393934
300.453371
300.505451
300.549320
300.584257
300.609688
300.625191
300.357634
300.352534
300.343162
300.329604
300.312000
300.290537
300.265453
300.237027
300.205579
300.171465
300.123221
300.148026
300.170456
300.190142
300.206757
300.220022
300.229716
300.235674
299.723256
299.729434
299.738717
299.750978
299.766055
299.783755
299.803856
299.826108
299.850231
299.875924
299.920725
299.904994
299.890851
299.878523
299.868203
299.860052
299.854195
299.850719
299.090868
299.108279
299.136149
299.174133
299.221775
299.278503
299.343641
299.416409
299.495932
299.581252
299.717320
299.660871
299.609992
299.565508
299.528136
299.498475
299.476999
299.464049
298.452938
298.481669
298.528270
298.592183
298.672654
298.768736
298.879293
299.003015
299.138428
299.283911
299.509683
299.411668
299.323292
299.245987
299.181005
299.129392
299.091977
299.069359
297.801868
297.842135
297.907827
297.998173
298.112121
298.248340
298.405235
298.580955
298.773416
298.980321
299.294419
299.153315
299.026067
298.914743
298.821145
298.746782
298.692851
298.660214
297.129908
297.182057
297.267417
297.385003
297.533459
297.711068
297.915762
298.145140
298.396489
298.666815
299.068008
298.881584
298.713459
298.566364
298.442681
298.344404
298.273112
298.229946
296.429067
296.493575
296.599400
296.745338
296.929726
297.150452
297.404965
297.690295
298.003077
298.339589
298.826742
298.592028
298.380353
298.195156
298.039434
297.915694
297.825920
297.771545
295.691031
295.768508
295.895814
296.071526
296.293670
296.559730
296.866658
297.210892
297.588386
297.994652
298.566662
298.279897
298.021292
297.795046
297.604816
297.453658
297.343989
297.277550