# vtk DataFile Version 3.0
Mesh_1
ASCII
DATASET UNSTRUCTURED_GRID
POINTS 2962 float
-50.000000 -50.000000 0
-50.000000 50.000000 0
50.000000 -50.000000 0
50.000000 50.000000 0
-50.000000 -48.750000 0
-50.000000 -47.500000 0
-50.000000 -46.250000 0
-50.000000 -45.000000 0
-50.000000 -43.750000 0
-50.000000 -42.500000 0
-50.000000 -41.250000 0
-50.000000 -40.000000 0
-50.000000 -38.750000 0
-50.000000 -37.500000 0
-50.000000 -36.250000 0
-50.000000 -35.000000 0
-50.000000 -33.750000 0
-50.000000 -32.500000 0
-50.000000 -31.250000 0
-50.000000 -30.000000 0
-50.000000 -28.750000 0
-50.000000 -27.500000 0
-50.000000 -26.250000 0
-50.000000 -25.000000 0
-50.000000 -23.750000 0
-50.000000 -22.500000 0
-50.000000 -21.250000 0
-50.000000 -20.000000 0
-50.000000 -18.750000 0
-50.000000 -17.500000 0
-50.000000 -16.250000 0
-50.000000 -15.000000 0
-50.000000 -13.750000 0
-50.000000 -12.500000 0
-50.000000 -11.250000 0
-50.000000 -10.000000 0
-50.000000 -8.750000 0
-50.000000 -7.500000 0
-50.000000 -6.250000 0
-50.000000 -5.000000 0
-50.000000 -3.750000 0
-50.000000 -2.500000 0
-50.000000 -1.250000 0
-50.000000 0.000000 0
-50.000000 1.250000 0
-50.000000 2.500000 0
-50.000000 3.750000 0
-50.000000 5.000000 0
-50.000000 6.250000 0
-50.000000 7.500000 0
-50.000000 8.750000 0
-50.000000 10.000000 0
-50.000000 11.250000 0
-50.000000 12.500000 0
-50.000000 13.750000 0
-50.000000 15.000000 0
-50.000000 16.250000 0
-50.000000 17.500000 0
-50.000000 18.750000 0
-50.000000 20.000000 0
-50.000000 21.250000 0
-50.000000 22.500000 0
-50.000000 23.750000 0
-50.000000 25.000000 0
-50.000000 26.250000 0
-50.000000 27.500000 0
-50.000000 28.750000 0
-50.000000 30.000000 0
-50.000000 31.250000 0
-50.000000 32.500000 0
-50.000000 33.750000 0
-50.000000 35.000000 0
-50.000000 36.250000 0
-50.000000 37.500000 0
-50.000000 38.750000 0
-50.000000 40.000000 0
-50.000000 41.250000 0
-50.000000 42.500000 0
-50.000000 43.750000 0
-50.000000 45.000000 0
-50.000000 46.250000 0
-50.000000 47.500000 0
-50.000000 48.750000 0
-48.750000 -50.000000 0
-47.500000 -50.000000 0
-46.250000 -50.000000 0
-45.000000 -50.000000 0
-43.750000 -50.000000 0
-42.500000 -50.000000 0
-41.250000 -50.000000 0
-40.000000 -50.000000 0
-38.750000 -50.000000 0
-37.500000 -50.000000 0
-36.250000 -50.000000 0
-35.000000 -50.000000 0
-33.750000 -50.000000 0
-32.500000 -50.000000 0
-31.250000 -50.000000 0
-30.000000 -50.000000 0
-28.750000 -50.000000 0
-27.500000 -50.000000 0
-26.250000 -50.000000 0
-25.000000 -50.000000 0
-23.750000 -50.000000 0
-22.500000 -50.000000 0
-21.250000 -50.000000 0
-20.000000 -50.000000 0
-18.750000 -50.000000 0
-17.500000 -50.000000 0
-16.250000 -50.000000 0
-15.000000 -50.000000 0
-13.750000 -50.000000 0
-12.500000 -50.000000 0
-11.250000 -50.000000 0
-10.000000 -50.000000 0
-8.750000 -50.000000 0
-7.500000 -50.000000 0
-6.250000 -50.000000 0
-5.000000 -50.000000 0
-3.750000 -50.000000 0
-2.500000 -50.000000 0
-1.250000 -50.000000 0
0.000000 -50.000000 0
1.250000 -50.000000 0
2.500000 -50.000000 0
3.750000 -50.000000 0
5.000000 -50.000000 0
6.250000 -50.000000 0
7.500000 -50.000000 0
8.750000 -50.000000 0
10.000000 -50.000000 0
11.250000 -50.000000 0
12.500000 -50.000000 0
13.750000 -50.000000 0
15.000000 -50.000000 0
16.250000 -50.000000 0
17.500000 -50.000000 0
18.750000 -50.000000 0
20.000000 -50.000000 0
21.250000 -50.000000 0
22.500000 -50.000000 0
23.750000 -50.000000 0
25.000000 -50.000000 0
26.250000 -50.000000 0
27.500000 -50.000000 0
28.750000 -50.000000 0
30.000000 -50.000000 0
31.250000 -50.000000 0
32.500000 -50.000000 0
33.750000 -50.000000 0
35.000000 -50.000000 0
36.250000 -50.000000 0
37.500000 -50.000000 0
38.750000 -50.000000 0
40.000000 -50.000000 0
41.250000 -50.000000 0
42.500000 -50.000000 0
43.750000 -50.000000 0
45.000000 -50.000000 0
46.250000 -50.000000 0
47.500000 -50.000000 0
48.750000 -50.000000 0
50.000000 -48.750000 0
50.000000 -47.500000 0
50.000000 -46.250000 0
50.000000 -45.000000 0
50.000000 -43.750000 0
50.000000 -42.500000 0
50.000000 -41.250000 0
50.000000 -40.000000 0
50.000000 -38.750000 0
50.000000 -37.500000 0
50.000000 -36.250000 0
50.000000 -35.000000 0
50.000000 -33.750000 0
50.000000 -32.500000 0
50.000000 -31.250000 0
50.000000 -30.000000 0
50.000000 -28.750000 0
50.000000 -27.500000 0
50.000000 -26.250000 0
50.000000 -25.000000 0
50.000000 -23.750000 0
50.000000 -22.500000 0
50.000000 -21.250000 0
50.000000 -20.000000 0
50.000000 -18.750000 0
50.000000 -17.500000 0
50.000000 -16.250000 0
50.000000 -15.000000 0
50.000000 -13.750000 0
50.000000 -12.500000 0
50.000000 -11.250000 0
50.000000 -10.000000 0
50.000000 -8.750000 0
50.000000 -7.500000 0
50.000000 -6.250000 0
50.000000 -5.000000 0
50.000000 -3.750000 0
50.000000 -2.500000 0
50.000000 -1.250000 0
50.000000 0.000000 0
50.000000 1.250000 0
50.000000 2.500000 0
50.000000 3.750000 0
50.000000 5.000000 0
50.000000 6.250000 0
50.000000 7.500000 0
50.000000 8.750000 0
50.000000 10.000000 0
50.000000 11.250000 0
50.000000 12.500000 0
50.000000 13.750000 0
50.000000 15.000000 0
50.000000 16.250000 0
50.000000 17.500000 0
50.000000 18.750000 0
50.000000 20.000000 0
50.000000 21.250000 0
50.000000 22.500000 0
50.000000 23.750000 0
50.000000 25.000000 0
50.000000 26.250000 0
50.000000 27.500000 0
50.000000 28.750000 0
50.000000 30.000000 0
50.000000 31.250000 0
50.000000 32.500000 0
50.000000 33.750000 0
50.000000 35.000000 0
50.000000 36.250000 0
50.000000 37.500000 0
50.000000 38.750000 0
50.000000 40.000000 0
50.000000 41.250000 0
50.000000 42.500000 0
50.000000 43.750000 0
50.000000 45.000000 0
50.000000 46.250000 0
50.000000 47.500000 0
50.000000 48.750000 0
-48.750000 50.000000 0
-47.500000 50.000000 0
-46.250000 50.000000 0
-45.000000 50.000000 0
-43.750000 50.000000 0
-42.500000 50.000000 0
-41.250000 50.000000 0
-40.000000 50.000000 0
-38.750000 50.000000 0
-37.500000 50.000000 0
-36.250000 50.000000 0
-35.000000 50.000000 0
-33.750000 50.000000 0
-32.500000 50.000000 0
-31.250000 50.000000 0
-30.000000 50.000000 0
-28.750000 50.000000 0
-27.500000 50.000000 0
-26.250000 50.000000 0
-25.000000 50.000000 0
-23.750000 50.000000 0
-22.500000 50.000000 0
-21.250000 50.000000 0
-20.000000 50.000000 0
-18.750000 50.000000 0
-17.500000 50.000000 0
-16.250000 50.000000 0
-15.000000 50.000000 0
-13.750000 50.000000 0
-12.500000 50.000000 0
-11.250000 50.000000 0
-10.000000 50.000000 0
-8.750000 50.000000 0
-7.500000 50.000000 0
-6.250000 50.000000 0
-5.000000 50.000000 0
-3.750000 50.000000 0
-2.500000 50.000000 0
-1.250000 50.000000 0
0.000000 50.000000 0
1.250000 50.000000 0
2.500000 50.000000 0
3.750000 50.000000 0
5.000000 50.000000 0
6.250000 50.000000 0
7.500000 50.000000 0
8.750000 50.000000 0
10.000000 50.000000 0
11.250000 50.000000 0
12.500000 50.000000 0
13.750000 50.000000 0
15.000000 50.000000 0
16.250000 50.000000 0
17.500000 50.000000 0
18.750000 50.000000 0
20.000000 50.000000 0
21.250000 50.000000 0
22.500000 50.000000 0
23.750000 50.000000 0
25.000000 50.000000 0
26.250000 50.000000 0
27.500000 50.000000 0
28.750000 50.000000 0
30.000000 50.000000 0
31.250000 50.000000 0
32.500000 50.000000 0
33.750000 50.000000 0
35.000000 50.000000 0
36.250000 50.000000 0
37.500000 50.000000 0
38.750000 50.000000 0
40.000000 50.000000 0
41.250000 50.000000 0
42.500000 50.000000 0
43.750000 50.000000 0
45.000000 50.000000 0
46.250000 50.000000 0
47.500000 50.000000 0
48.750000 50.000000 0
-48.750000 48.750000 0
-47.500000 48.750000 0
-46.250000 48.750000 0
-45.000000 48.750000 0
-43.750000 48.750000 0
-42.500000 48.750000 0
-41.250000 48.750000 0
-40.000000 48.750000 0
-38.750000 48.750000 0
-37.500000 48.750000 0
-36.250000 48.750000 0
-35.000000 48.750000 0
-33.750000 48.750000 0
-32.500000 48.750000 0
-31.250000 48.750000 0
-30.000000 48.750000 0
-28.750000 48.750000 0
-27.500000 48.750000 0
-26.250000 48.750000 0
-25.000000 48.750000 0
-23.750000 48.750000 0
-22.500000 48.750000 0
-21.250000 48.750000 0
-20.000000 48.750000 0
-18.750000 48.750000 0
-17.500000 48.750000 0
-16.250000 48.750000 0
-15.000000 48.750000 0
-13.750000 48.750000 0
-12.500000 48.750000 0
-11.250000 48.750000 0
-10.000000 48.750000 0
-8.750000 48.750000 0
-7.500000 48.750000 0
-6.250000 48.750000 0
-5.000000 48.750000 0
-3.750000 48.750000 0
-2.500000 48.750000 0
-1.250000 48.750000 0
0.000000 48.750000 0
1.250000 48.750000 0
2.500000 48.750000 0
3.750000 48.750000 0
5.000000 48.750000 0
6.250000 48.750000 0
7.500000 48.750000 0
8.750000 48.750000 0
10.000000 48.750000 0
11.250000 48.750000 0
12.500000 48.750000 0
13.750000 48.750000 0
15.000000 48.750000 0
16.250000 48.750000 0
17.500000 48.750000 0
18.750000 48.750000 0
20.000000 48.750000 0
21.250000 48.750000 0
22.500000 48.750000 0
23.750000 48.750000 0
25.000000 48.750000 0
26.250000 48.750000 0
27.500000 48.750000 0
28.750000 48.750000 0
30.000000 48.750000 0
31.250000 48.750000 0
32.500000 48.750000 0
33.750000 48.750000 0
35.000000 48.750000 0
36.250000 48.750000 0
37.500000 48.750000 0
38.750000 48.750000 0
40.000000 48.750000 0
41.250000 48.750000 0
42.500000 48.750000 0
43.750000 48.750000 0
45.000000 48.750000 0
46.250000 48.750000 0
47.500000 48.750000 0
48.750000 48.750000 0
-48.750000 47.500000 0
-47.500000 47.500000 0
-46.250000 47.500000 0
-45.000000 47.500000 0
-43.750000 47.500000 0
-42.500000 47.500000 0
-41.250000 47.500000 0
-40.000000 47.500000 0
-38.750000 47.500000 0
-37.500000 47.500000 0
-36.250000 47.500000 0
-35.000000 47.500000 0
-33.750000 47.500000 0
-32.500000 47.500000 0
-31.250000 47.500000 0
-30.000000 47.500000 0
-28.750000 47.500000 0
-27.500000 47.500000 0
-26.250000 47.500000 0
-25.000000 47.500000 0
-23.750000 47.500000 0
-22.500000 47.500000 0
-21.250000 47.500000 0
-20.000000 47.500000 0
-18.750000 47.500000 0
-17.500000 47.500000 0
-16.250000 47.500000 0
-15.000000 47.500000 0
-13.750000 47.500000 0
-12.500000 47.500000 0
-11.250000 47.500000 0
-10.000000 47.500000 0
-8.750000 47.500000 0
-7.500000 47.500000 0
-6.250000 47.500000 0
-5.000000 47.500000 0
-3.750000 47.500000 0
[...]
POINT_DATA 2962
SCALARS Temperature float 1
LOOKUP_TABLE default
200.000000
500.000000
200.000000
500.000000
206.943554
213.845870
220.665074
227.358153
233.880725
240.187243
246.231810
251.969744
257.359904
262.367591
266.967524
271.146162
274.902639
278.248022
281.203184
283.795964
286.058290
288.023699
289.725452
291.195252
292.462473
293.553785
294.493048
295.301383
295.997348
296.597171
297.114995
297.563136
297.952315
298.291888
298.590044
298.853994
299.090131
299.304182
299.501345
299.686409
299.863874
300.038054
300.213185
300.393528
300.583469
300.787628
301.010969
301.258925
301.537521
301.853527
302.214619
302.629558
303.108404
303.662751
304.305993
305.053638
305.923647
306.936825
308.117252
309.492748
311.095366
312.961878
315.134235
317.659904
320.592007
323.989111
327.914463
332.434449
337.616028
343.522955
350.210824
357.721303
366.076461
375.274514
385.288328
396.067299
407.541991
419.630092
432.242206
445.286519
458.671915
472.309609
486.113558
200.000000
200.000000
200.000000
200.000000
200.000000
200.000000
200.000000
200.000000
200.000000
200.000000
200.000000
200.000000
200.000000
200.000000
200.000000
200.000000
200.000000
200.000000
200.000000
200.000000
200.000000
200.000000
200.000000
200.000000
200.000000
200.000000
200.000000
200.000000
200.000000
200.000000
200.000000
200.000000
200.000000
200.000000
200.000000
200.000000
200.000000
200.000000
200.000000
200.000000
200.000000
200.000000
200.000000
200.000000
200.000000
200.000000
200.000000
200.000000
200.000000
200.000000
200.000000
200.000000
200.000000
200.000000
200.000000
200.000000
200.000000
200.000000
200.000000
200.000000
200.000000
200.000000
200.000000
200.000000
200.000000
200.000000
200.000000
200.000000
200.000000
200.000000
200.000000
200.000000
200.000000
200.000000
200.000000
200.000000
200.000000
200.000000
200.000000
207.650461
215.256928
222.773797
230.152365
237.339620
244.277622
250.903897
257.153414
262.962682
268.276063
273.053386
277.276577
280.952288
284.109059
286.790889
289.050041
290.941025
292.516431
293.824499
294.908016
295.804068
296.544305
297.155441
297.659865
298.076246
298.420107
298.704328
298.939592
299.134763
299.297205
299.433055
299.547448
299.644711
299.728525
299.802062
299.868105
299.929154
299.987521
300.045416
300.105030
300.168622
300.238598
300.317608
300.408644
300.515152
300.641164
300.791449
300.971696
301.188724
301.450741
301.767652
302.151429
302.616552
303.180544
303.864600
304.694346
305.700708
306.920935
308.399724
310.190444
312.356335
314.971532
318.121572
321.902906
326.420687
331.783917
338.097107
345.448239
353.894382
363.448829
374.075426
385.693825
398.192742
411.445191
425.321107
439.695537
454.452600
469.486272
484.699141
500.000000
500.000000
500.000000
500.000000
500.000000
500.000000
500.000000
500.000000
500.000000
500.000000
500.000000
500.000000
500.000000
500.000000
500.000000
500.000000
500.000000
500.000000
500.000000
500.000000
500.000000
500.000000
500.000000
500.000000
500.000000
500.000000
500.000000
500.000000
500.000000
500.000000
500.000000
500.000000
500.000000
500.000000
500.000000
500.000000
500.000000
500.000000
500.000000
500.000000
500.000000
500.000000
500.000000
500.000000
500.000000
500.000000
500.000000
500.000000
500.000000
500.000000
500.000000
500.000000
500.000000
500.000000
500.000000
500.000000
500.000000
500.000000
500.000000
500.000000
500.000000
500.000000
500.000000
500.000000
500.000000
500.000000
500.000000
500.000000
500.000000
500.000000
500.000000
500.000000
500.000000
500.000000
500.000000
500.000000
500.000000
500.000000
500.000000
486.072312
485.949211
485.746287
485.467351
485.118558
484.709065
484.251579
483.762503
483.261321
482.768970
482.305273
481.886085
481.521244
481.214192
480.963065
480.762480
480.605303
480.484002
480.391499
480.321611
480.269184
480.230071
480.201012
480.179491
480.163591
480.151865
480.143229
480.136875
480.132204
480.128773
480.126255
480.124408
480.123055
480.122066
480.121346
480.120825
480.120453
480.120193
480.120022
480.119922
480.119884
480.119903
480.119983
480.120130
480.120359
480.120691
480.121160
480.121810
480.122704
480.123928
480.125599
480.127879
480.130985
480.135213
480.140965
480.148783
480.159396
480.173784
480.193254
480.219533
480.254889
480.302250
480.365333
480.448734
480.557934
480.699145
480.878860
481.103026
481.375733
481.697538
482.063784
482.463627
482.880482
483.294063
483.683187
484.028273
484.312958
484.524771
484.655147
472.226483
471.978245
471.568589
471.004562
470.297818
469.466124
468.534751
467.537114
466.513811
465.509285
464.566040
463.717823
462.984699
462.372460
461.875589
461.481553
461.174732
460.939205
460.760385
460.625760
460.525054
460.450088
460.394487
460.353362
460.323008
460.300639
460.284175
460.272066
460.263169
460.256634
460.251839
460.248322
460.245747
460.243864
460.242493
460.241501
460.240792
460.240299
460.239973
460.239782
460.239709
460.239747
460.239898
460.240178
460.240614
460.241247
460.242139
460.243376
460.245078
460.247408
460.250591
460.254932
460.260847
460.268903
460.279865
460.294770
460.315017
460.342487
460.379697
460.429991
460.497773
460.588779
460.710348
460.871667
461.083859
461.359784
461.713269
462.157511
462.702369
463.350633
464.093973
464.910243
465.764236
466.612585
467.410412
468.116946
468.698789
469.130980
469.396674
458.545769
458.168701
457.545264
456.684493
455.602031
454.322864
452.884188
451.337392
449.747525
448.188321
446.731780
445.434468
444.327268
443.415363
442.685276
442.113411
441.672866
441.337700
441.085077
440.895988
440.755185
440.650740
440.573485
440.516462
440.474441
440.443510
440.420764
440.404048
440.391770
440.382757
440.376144
440.371295
440.367745
440.365150
440.363260
440.361893
440.360917
440.360237
440.359787
440.359525
440.359425
440.359476
440.359685
440.360070
440.360671
440.361543
440.362773
440.364478
440.366823
440.370035
440.374423
440.380410
440.388570
440.399686
440.414821
440.435414
440.463415
440.501451
440.553057
440.622959
440.717434
440.844743
441.015615
441.243726
441.546053
441.942862
442.456922
443.111379
443.925600
444.908654
446.051231
447.319135
448.653635
449.981628
451.228931
452.330312
453.234270
453.903687
454.314296
445.115981
444.605533
443.759277
442.586120
441.102952
439.339115
437.341750
435.180746
432.950577
430.764696
428.738291
426.961004
425.474544
424.276448
423.336741
422.613951
422.065621
421.653653
421.346235
421.117932
420.948959
420.824201
420.732249
420.664562
420.614782
420.578197
420.551323
420.531590
420.517106
420.506479
420.498684
420.492971
420.488788
420.485731
420.483505
420.481895
420.480745
420.479944
420.479415
420.479106
420.478988
420.479049
420.479294
420.479748
420.480455
420.481483
420.482931
420.484940
420.487703
420.491487
420.496658
420.503714
420.513336
420.526451
420.544318
420.568652
420.601776
420.646845
420.708121
420.791353
420.904260
421.057145
421.263643
421.541568
421.913765
422.408688
423.060180
423.905483
424.979998
426.307150
427.883162
429.661431
431.549542
433.431359
435.193373
436.741100
438.004291
438.935203
439.504221
432.026112
431.378177
430.300197
428.797764
426.884548
424.588899
421.962953
419.093266
416.109345
413.181598
410.495687
408.196713
406.333458
404.879144
403.771290
402.940031
402.322016
401.865057
401.528278
401.280545
401.098518
400.964857
400.866749
400.794754
400.741929
400.703173
400.674741
400.653884
400.638586
400.627368
400.619143
400.613116
400.608704
400.605481
400.603134
400.601437
400.600225
400.599380
400.598823
400.598497
400.598372
400.598436
400.598695
400.599174
400.599919
400.601002
400.602529
400.604647
400.607560
400.611551
400.617006
400.624453
400.634611
400.648463
400.667350
400.693097
400.728194
400.776032
400.841230
400.930073
401.051109
401.215935
401.440242
401.745139
402.158752
402.717944
403.469625
404.470377
405.781757
407.456788
409.512836
411.893884
414.451744
417.000894
419.372102
421.436424
423.106590
424.328613
425.071850
419.368091
418.580874
417.265576
415.420199
413.048580
410.168986
406.827903
403.120024
399.211941
395.356665
391.866148
388.996705
386.783432
385.135380
383.929244
383.052869
382.417354
381.956280
381.621275
381.377453
381.199711
381.069961
380.975137
380.905776
380.855006
380.817824
380.790583
380.770620
380.755987
380.745263
380.737403
380.731646
380.727432
380.724354
380.722114
380.720493
380.719336
380.718530
380.717998
380.717687
380.717568
380.717629
380.717876
380.718333
380.719044
380.720079
380.721536
380.723558
380.726340
380.730152
380.735363
380.742479
380.752191
380.765441
380.783521
380.808194
380.841871
380.887860
380.950692
381.036600
381.154166
381.315244
381.536253
381.839993
382.258159
382.834713
383.629999
384.724642
386.219866
388.225407
390.817511
393.949524
397.362655
400.748370
403.857717
406.525904
408.657034
410.200811
411.133457
407.235295
406.311661
404.761041
402.568884
399.720595
396.210567
392.059653
387.346992
382.261731
377.166976
372.615537
369.140528
366.668187
364.949699
363.757440
362.924845
362.338252
361.921434
361.623088
361.408281
361.252912
361.140137
361.058062
360.998209
360.954496
360.922535
360.899147
360.882024
360.869481
360.860293
360.853561
360.848632
360.845025
360.842391
360.840473
360.839086
360.838096
360.837407
360.836951
360.836685
360.836583
360.836635
360.836847
360.837238
360.837846
360.838732
360.839979
360.841709
360.844091
360.847354
360.851816
360.857910
360.866231
360.877590
360.893100
360.914284
360.943238
360.982843
361.037079
361.111469
361.213711
361.354622
361.549534
361.820419
362.199178
362.732751
363.491015
364.578325
366.147659
368.407463
371.582278
375.724046
380.300983
384.772214
388.784494
392.152441
394.794829
396.684139
397.815976
395.719446
394.669443
392.898051
390.373709
387.054356
382.893040
377.853156
371.946562
365.321020
358.433975
352.288496
348.281685
345.799091
344.237788
343.225972
342.550821
342.089374
341.768118
341.541361
341.379673
341.263518
341.179615
341.118764
341.074501
341.042233
341.018672
341.001448
340.988846
340.979621
340.972866
340.967918
340.964296
340.961645
340.959710
340.958301
340.957283
340.956555
340.956049
340.955714
340.955519
340.955444
340.955483
340.955638
340.955925
340.956372
340.957022
340.957939
340.959210
340.960959
340.963357
340.966636
340.971115
340.977233
340.985589
340.997003
341.012606
341.033953
341.063194
341.103314
341.158485
341.234587
341.340000
341.486841
341.692973
341.985382
342.406098
343.022986
343.949984
345.384982
347.674509
351.380093
357.063398
363.345016
369.255009
374.355602
378.504536
381.685703
383.924940
385.253567
384.905757
383.748625
381.788022
378.973553
375.230088
370.454087
364.513376
357.265084
348.641815
338.959408
329.822788
325.898624
324.008705
322.976392
322.357840
321.963093
321.700306
321.520302
321.394567
321.305532
321.241872
321.196041
321.162879
321.138797
321.121263
321.108472
321.099127
321.092293
321.087292
321.083630
321.080949
321.078987
321.077551
321.076503
321.075740
321.075188
321.074794
321.074520
321.074339
321.074233
321.074192
321.074213
321.074297
321.074453
321.074695
321.075047
321.075543
321.076232
321.077179
321.078478
321.080255
321.082682
321.085998
321.090528
321.096718
321.105184
321.116775
321.132666
321.154497
321.184570
321.226153
321.283950
321.364856
321.479249
321.643280
321.883274
322.244846
322.813645
323.767774
325.525497
329.200186
337.804439
346.760672
354.547206
360.878370
365.824397
369.518508
372.076352
373.579525
374.866643
373.631289
371.531870
368.502403
364.438365
359.179850
352.481181
343.958588
333.021752
318.939057
302.144624
301.481319
301.360713
301.301234
301.265901
301.243407
301.228453
301.218218
301.211072
301.206014
301.202399
301.199796
301.197913
301.196546
301.195551
301.194825
301.194294
301.193906
301.193622
301.193415
301.193262
301.193151
301.193070
301.193010
301.192967
301.192935
301.192913
301.192897
301.192887
301.192881
301.192879
301.192880
301.192885
301.192894
301.192907
301.192927
301.192956
301.192995
301.193048
301.193122
301.193223
301.193361
301.193549
301.193806
301.194158
301.194638
301.195296
301.196198
301.197438
301.199145
301.201506
301.204789
301.209385
301.215887
301.225214
301.238873
301.259479
301.291975
301.346974
301.459518
302.090716
318.193498
331.346029
341.294772
348.786276
354.396174
358.487581
361.282434
362.912754
365.655024
364.378032
362.205775
359.065834
354.841128
349.345775
342.272916
333.066337
320.547550
301.630443
301.532809
319.135173
330.499577
338.575788
344.486443
348.753207
351.653049
353.340230
357.298974
356.020053
353.847377
350.714042
346.514547
341.089215
334.198375
325.486300
314.471669
300.835706
300.761038
313.162278
322.992574
330.530856
336.220603
340.385756
343.236327
344.900733
349.799530
348.555842
346.449652
343.428420
339.413814
334.298171
327.945076
320.208821
311.017121
300.625901
300.554730
309.760326
317.777585
324.334460
329.479356
333.332886
336.005769
337.578136
343.132496
341.954149
339.966982
337.136182
333.414130
328.744586
323.074943
316.386792
308.762096
300.497017
300.428224
307.546712
314.022979
319.550042
324.029476
327.460662
329.875729
331.308936
337.253366
336.161291
334.327957
331.735211
328.361947
324.191107
319.223326
313.501312
307.147454
300.405201
300.338863
305.975319
311.217580
315.813251
319.627843
322.604559
324.727547
325.997963
332.103666
331.109706
329.448360
327.114772
324.107350
320.434578
316.125949
311.247682
305.921207
300.335580
300.272020
304.798121
309.058768
312.857542
316.064085
318.602185
320.431936
321.534682
327.617159
326.725525
325.241019
323.168180
320.518114
317.313915
313.598216
309.442262
304.954114
300.280720
300.220290
303.886378
307.361830
310.494064
313.168769
315.308160
316.863331
317.805924
323.725001
322.934232
321.622026
319.798831
317.483023
314.704763
311.510744
307.969041
304.172270
300.236390
300.179396
303.165271
306.008110
308.588115
310.808768
312.598353
313.907306
314.704111
320.359521
319.664395
318.514039
316.922107
314.910397
312.511378
309.770965
306.750891
303.529538
300.199959
300.146623
302.587201
304.917223
307.041517
308.879837
310.369177
311.463427
312.131683
317.456701
316.849803
315.847646
314.465174
312.725094
310.659395
308.310856
305.734024
302.995035
300.169669
300.120122
302.119687
304.032064
305.780895
307.299885
308.535091
309.445544
310.002857
314.957595
314.430491
313.561583
312.365866
310.865421
309.090263
307.079048
304.879317
302.546910
300.144277
300.098566
301.739360
303.310451
304.750112
306.003719
307.025756
307.780801
308.243759
312.808972
312.353001
311.602347
310.571302
309.280475
307.757198
306.035765
304.157292
302.169012
300.122867
300.080962
301.428737
302.720268
303.905385
304.939122
305.783415
306.408144
306.791654
310.963434
310.570214
309.923521
309.036536
307.927991
306.622301
305.149529
303.545079
301.848981
300.104737
300.066546
301.174357
302.236499
303.212036
304.063969
304.760638
305.276707
305.593777
309.379204
309.040921
308.485004
307.723345
306.772668
305.654495
304.394979
303.024519
301.577097
300.089334
300.054719
300.965646
301.839333
302.642293
303.344082
303.918460
304.344270
304.606037
308.019733
307.729283
307.252246
306.599189
305.784854
304.828043
303.751383
302.580925
301.345557
300.076218
300.045002
300.794175
301.512896
302.173721
302.751604
303.224850
303.575875
303.791756
306.853217
306.604252
306.195528
305.636327
304.939529
304.121452
303.201593
302.202246
301.147988
300.065027
300.037011
300.653156
301.244354
301.788090
302.263762
302.653463
302.942626
303.120511
305.852079
305.639001
305.289305
304.811079
304.215499
303.516656
302.731298
301.878483
300.979127
300.055461
300.030434
300.537083
301.023274
301.470525
301.861891
302.182613
302.420654
302.567118
304.992474
304.810390
304.511632
304.103201
303.594747
302.998386
302.328470
301.601267
300.834576
300.047273
300.025016
300.441468
300.841136
301.208844
301.530664
301.794445
301.990258
302.110756
304.253810
304.098475
303.843649
303.495366
303.061915
302.553683
301.982936
301.363543
300.710640
300.040253
300.020549
300.362638
300.690957
300.993051
301.257478
301.474244
301.635177
301.734220
303.618320
303.486070
303.269145
302.972716
302.603878
302.171507
301.686059
301.159334
300.604190
300.034223
300.016862
300.297577
300.567003
300.814924
301.031951
301.209877
301.341985
301.423294
303.070672
302.958364
302.774165
302.522491
302.209391
301.842420
301.430467
300.983548
300.512566
300.029033
300.013815
300.243807
300.464554
300.667691
300.845526
300.991329
301.099593
301.166229
302.597622
302.502569
302.346682
302.133710
301.868789
301.558326
301.209849
300.831833
300.433492
300.024554
300.011292
300.199280
300.379715
300.545761
300.691131
300.810322
300.898828
300.953305
302.187713
302.107631
301.976302
301.796895
301.573746
301.312259
301.018780
300.700448
300.365019
300.020676
300.009197
300.162306
300.309266
300.444509
300.562914
300.659999
300.732093
300.776468
301.831003
301.763961
301.654021
301.503841
301.317056
301.098195
300.852573
300.586165
300.305460
300.017302
300.007450
300.131482
300.250533
300.360094
300.456016
300.534668
300.593075
300.629027
301.518834
301.463212
301.372001
301.247409
301.092457
300.910904
300.707161
300.486186
300.253357
300.014351
300.005986
300.105639
300.201290
300.289317
300.366388
300.429584
300.476513
300.505400
301.243622
301.198073
301.123381
301.021356
300.894474
300.745815
300.578992
300.398064
300.207435
300.011750
300.004748
300.083796
300.159671
300.229498
300.290635
300.340765
300.377993
300.400908
300.998681
300.962100
300.902114
300.820179
300.718283
300.598902
300.464937
300.319648
300.166571
300.009435
300.003690
300.065128
300.124099
300.178370
300.225887
300.264850
300.293785
300.311595
300.778054
300.749554
300.702818
300.638981
300.559593
300.466584
300.362215
300.249024
300.129768
300.007350
300.002772
300.048926
300.093227
300.133997
300.169693
300.198964
300.220701
300.234081
300.576378
300.555265
300.520642
300.473351
300.414540
300.345638
300.268322
300.184473
300.096130
300.005445
300.001959
300.034577
300.065885
300.094698
300.119925
300.140611
300.155973
300.165429
300.388747
300.374507
300.351156
300.319259
300.279592
300.233120
300.180973
300.124419
300.064836
300.003672
300.001220
300.021537
300.041038
300.058985
300.074698
300.087583
300.097152
300.103042
300.210597
300.202884
300.190234
300.172954
300.151464
300.126288
300.098038
300.067402
300.035124
300.001990
300.000528
300.009312
300.017745
300.025505
300.032300
300.037871
300.042009
300.044556
300.037595
300.036220
300.033962
300.030876
300.027038
300.022543
300.017499
300.012031
300.006270
300.000355
299.999855
299.997441
299.995123
299.992991
299.991124
299.989593
299.988457
299.987757
299.865533
299.870461
299.878537
299.889567
299.903285
299.919357
299.937394
299.956958
299.977571
299.998730
299.999177
299.985472
299.972318
299.960212
299.949612
299.940922
299.934468
299.930495
299.690226
299.701574
299.720178
299.745589
299.777191
299.814218
299.855772
299.900841
299.948328
299.997073
299.998467
299.972953
299.948463
299.925925
299.906193
299.890013
299.877997
299.870601
299.507411
299.525452
299.555032
299.595435
299.645686
299.704565
299.770643
299.842312
299.917827
299.995345
299.997700
299.959410
299.922657
299.888833
299.859221
299.834939
299.816908
299.805809
299.312643
299.337812
299.379080
299.435453
299.505567
299.587724
299.679931
299.779943
299.885325
299.993504
299.996845
299.944328
299.893921
299.847531
299.806917
299.773615
299.748886
299.733664
299.101191
299.134092
299.188043
299.261745
299.353419
299.460846
299.581421
299.712210
299.850026
299.991505
299.995871
299.927138
299.861166
299.800454
299.747301
299.703719
299.671356
299.651436
298.867917
298.909342
298.977274
299.070083
299.185532
299.320832
299.472705
299.637455
299.811067
299.989298
299.994741
299.907187
299.823152
299.745818
299.678115
299.622604
299.581384
299.556013
298.607164
298.658104
298.741647
298.855795
298.997807
299.164258
299.351118
299.553844
299.767490
299.986830
299.993411
299.883718
299.778435
299.681551
299.596736
299.527197
299.475563
299.443783