# vtk DataFile Version 3.0
Mesh_1
ASCII
DATASET UNSTRUCTURED_GRID
POINTS 2962 float
-50 -50 0
-50 50 0
50 -50 0
50 50 0
-50 -48.75 0
-50 -47.5 0
-50 -46.25 0
-50 -45 0
-50 -43.75 0
-50 -42.5 0
-50 -41.25 0
-50 -40 0
-50 -38.75 0
-50 -37.5 0
-50 -36.25 0
-50 -35 0
-50 -33.75 0
-50 -32.5 0
-50 -31.25 0
-50 -30 0
-50 -28.75 0
-50 -27.5 0
-50 -26.25 0
-50 -25 0
-50 -23.75 0
-50 -22.5 0
-50 -21.25 0
-50 -20 0
-50 -18.75 0
-50 -17.5 0
-50 -16.25 0
-50 -15 0
-50 -13.75 0
-50 -12.5 0
-50 -11.25 0
-50 -10 0
-50 -8.75 0
-50 -7.5 0
-50 -6.25 0
-50 -5 0
-50 -3.75 0
-50 -2.5 0
-50 -1.25 0
-50 0 0
-50 1.25 0
-50 2.5 0
-50 3.75 0
-50 5 0
-50 6.25 0
-50 7.5 0
-50 8.75 0
-50 10 0
-50 11.25 0
-50 12.5 0
-50 13.75 0
-50 15 0
-50 16.25 0
-50 17.5 0
-50 18.75 0
-50 20 0
-50 21.25 0
-50 22.5 0
-50 23.75 0
-50 25 0
-50 26.25 0
-50 27.5 0
-50 28.75 0
-50 30 0
-50 31.25 0
-50 32.5 0
-50 33.75 0
-50 35 0
-50 36.25 0
-50 37.5 0
-50 38.75 0
-50 40 0
-50 41.25 0
-50 42.5 0
-50 43.75 0
-50 45 0
-50 46.25 0
-50 47.5 0
-50 48.75 0
-48.75 -50 0
-47.5 -50 0
-46.25 -50 0
-45 -50 0
-43.75 -50 0
-42.5 -50 0
-41.25 -50 0
-40 -50 0
-38.75 -50 0
-37.5 -50 0
-36.25 -50 0
-35 -50 0
-33.75 -50 0
-32.5 -50 0
-31.25 -50 0
-30 -50 0
-28.75 -50 0
-27.5 -50 0
-26.25 -50 0
-25 -50 0
-23.75 -50 0
-22.5 -50 0
-21.25 -50 0
-20 -50 0
-18.75 -50 0
-17.5 -50 0
-16.25 -50 0
-15 -50 0
-13.75 -50 0
-12.5 -50 0
-11.25 -50 0
-10 -50 0
-8.75 -50 0
-7.5 -50 0
-6.25 -50 0
-5 -50 0
-3.75 -50 0
-2.5 -50 0
-1.25 -50 0
0 -50 0
1.25 -50 0
2.5 -50 0
3.75 -50 0
5 -50 0
6.25 -50 0
7.5 -50 0
8.75 -50 0
10 -50 0
11.25 -50 0
12.5 -50 0
13.75 -50 0
15 -50 0
16.25 -50 0
17.5 -50 0
18.75 -50 0
20 -50 0
21.25 -50 0
22.5 -50 0
23.75 -50 0
25 -50 0
26.25 -50 0
27.5 -50 0
28.75 -50 0
30 -50 0
31.25 -50 0
32.5 -50 0
33.75 -50 0
35 -50 0
36.25 -50 0
37.5 -50 0
38.75 -50 0
40 -50 0
41.25 -50 0
42.5 -50 0
43.75 -50 0
45 -50 0
46.25 -50 0
47.5 -50 0
48.75 -50 0
50 -48.75 0
50 -47.5 0
50 -46.25 0
50 -45 0
50 -43.75 0
50 -42.5 0
50 -41.25 0
50 -40 0
50 -38.75 0
50 -37.5 0
50 -36.25 0
50 -35 0
50 -33.75 0
50 -32.5 0
50 -31.25 0
50 -30 0
50 -28.75 0
50 -27.5 0
50 -26.25 0
50 -25 0
50 -23.75 0
50 -22.5 0
50 -21.25 0
50 -20 0
50 -18.75 0
50 -17.5 0
50 -16.25 0
50 -15 0
50 -13.75 0
50 -12.5 0
50 -11.25 0
50 -10 0
50 -8.75 0
50 -7.5 0
50 -6.25 0
50 -5 0
50 -3.75 0
50 -2.5 0
50 -1.25 0
50 0 0
50 1.25 0
50 2.5 0
50 3.75 0
50 5 0
50 6.25 0
50 7.5 0
50 8.75 0
50 10 0
50 11.25 0
50 12.5 0
50 13.75 0
50 15 0
50 16.25 0
50 17.5 0
50 18.75 0
50 20 0
50 21.25 0
50 22.5 0
50 23.75 0
50 25 0
50 26.25 0
50 27.5 0
50 28.75 0
50 30 0
50 31.25 0
50 32.5 0
50 33.75 0
50 35 0
50 36.25 0
50 37.5 0
50 38.75 0
50 40 0
50 41.25 0
50 42.5 0
50 43.75 0
50 45 0
50 46.25 0
50 47.5 0
50 48.75 0
-48.75 50 0
-47.5 50 0
-46.25 50 0
-45 50 0
-43.75 50 0
-42.5 50 0
-41.25 50 0
-40 50 0
-38.75 50 0
-37.5 50 0
-36.25 50 0
-35 50 0
-33.75 50 0
-32.5 50 0
-31.25 50 0
-30 50 0
-28.75 50 0
-27.5 50 0
-26.25 50 0
-25 50 0
-23.75 50 0
-22.5 50 0
-21.25 50 0
-20 50 0
-18.75 50 0
-17.5 50 0
-16.25 50 0
-15 50 0
-13.75 50 0
-12.5 50 0
-11.25 50 0
-10 50 0
-8.75 50 0
-7.5 50 0
-6.25 50 0
-5 50 0
-3.75 50 0
-2.5 50 0
-1.25 50 0
0 50 0
1.25 50 0
2.5 50 0
3.75 50 0
5 50 0
6.25 50 0
7.5 50 0
8.75 50 0
10 50 0
11.25 50 0
12.5 50 0
13.75 50 0
15 50 0
16.25 50 0
17.5 50 0
18.75 50 0
20 50 0
21.25 50 0
22.5 50 0
23.75 50 0
25 50 0
26.25 50 0
27.5 50 0
28.75 50 0
30 50 0
31.25 50 0
32.5 50 0
33.75 50 0
35 50 0
36.25 50 0
37.5 50 0
38.75 50 0
40 50 0
41.25 50 0
42.5 50 0
43.75 50 0
45 50 0
46.25 50 0
47.5 50 0
48.75 50 0
-48.75 48.75 0
-47.5 48.75 0
-46.25 48.75 0
-45 48.75 0
-43.75 48.75 0
-42.5 48.75 0
-41.25 48.75 0
-40 48.75 0
-38.75 48.75 0
-37.5 48.75 0
-36.25 48.75 0
-35 48.75 0
-33.75 48.75 0
-32.5 48.75 0
-31.25 48.75 0
-30 48.75 0
-28.75 48.75 0
-27.5 48.75 0
-26.25 48.75 0
-25 48.75 0
-23.75 48.75 0
-22.5 48.75 0
-21.25 48.75 0
-20 48.75 0
-18.75 48.75 0
-17.5 48.75 0
-16.25 48.75 0
-15 48.75 0
-13.75 48.75 0
-12.5 48.75 0
-11.25 48.75 0
-10 48.75 0
-8.75 48.75 0
-7.5 48.75 0
-6.25 48.75 0
-5 48.75 0
-3.75 48.75 0
-2.5 48.75 0
-1.25 48.75 0
0 48.75 0
1.25 48.75 0
2.5 48.75 0
3.75 48.75 0
5 48.75 0
6.25 48.75 0
7.5 48.75 0
8.75 48.75 0
10 48.75 0
11.25 48.75 0
12.5 48.75 0
13.75 48.75 0
15 48.75 0
16.25 48.75 0
17.5 48.75 0
18.75 48.75 0
20 48.75 0
21.25 48.75 0
22.5 48.75 0
23.75 48.75 0
25 48.75 0
26.25 48.75 0
27.5 48.75 0
28.75 48.75 0
30 48.75 0
31.25 48.75 0
32.5 48.75 0
33.75 48.75 0
35 48.75 0
36.25 48.75 0
37.5 48.75 0
38.75 48.75 0
40 48.75 0
41.25 48.75 0
42.5 48.75 0
43.75 48.75 0
45 48.75 0
46.25 48.75 0
47.5 48.75 0
48.75 48.75 0
-48.75 47.5 0
-47.5 47.5 0
-46.25 47.5 0
-45 47.5 0
-43.75 47.5 0
-42.5 47.5 0
-41.25 47.5 0
-40 47.5 0
-38.75 47.5 0
-37.5 47.5 0
-36.25 47.5 0
-35 47.5 0
-33.75 47.5 0
-32.5 47.5 0
-31.25 47.5 0
-30 47.5 0
-28.75 47.5 0
-27.5 47.5 0
-26.25 47.5 0
-25 47.5 0
-23.75 47.5 0
-22.5 47.5 0
-21.25 47.5 0
-20 47.5 0
-18.75 47.5 0
-17.5 47.5 0
-16.25 47.5 0
-15 47.5 0
-13.75 47.5 0
-12.5 47.5 0
-11.25 47.5 0
-10 47.5 0
-8.75 47.5 0
-7.5 47.5 0
-6.25 47.5 0
-5 47.5 0
-3.75 47.5 0
-2.5 47.5 0
-1.25 47.5 0
0 47.5 0
1.25 47.5 0
2.5 47.5 0
3.75 47.5 0
5 47.5 0
6.25 47.5 0
7.5 47.5 0
8.75 47.5 0
10 47.5 0
11.25 47.5 0
12.5 47.5 0
13.75 47.5 0
15 47.5 0
16.25 47.5 0
17.5 47.5 0
18.75 47.5 0
20 47.5 0
21.25 47.5 0
22.5 47.5 0
23.75 47.5 0
25 47.5 0
26.25 47.5 0
27.5 47.5 0
28.75 47.5 0
30 47.5 0
31.25 47.5 0
32.5 47.5 0
33.75 47.5 0
35 47.5 0
36.25 47.5 0
37.5 47.5 0
38.75 47.5 0
40 47.5 0
41.25 47.5 0
42.5 47.5 0
43.75 47.5 0
45 47.5 0
46.25 47.5 0
47.5 47.5 0
48.75 47.5 0
-48.75 46.25 0
-47.5 46.25 0
-46.25 46.25 0
-45 46.25 0
-43.75 46.25 0
-42.5 46.25 0
-41.25 46.25 0
-40 46.25 0
-38.75 46.25 0
-37.5 46.25 0
-36.25 46.25 0
-35 46.25 0
-33.75 46.25 0
-32.5 46.25 0
-31.25 46.25 0
-30 46.25 0
-28.75 46.25 0
-27.5 46.25 0
-26.25 46.25 0
-25 46.25 0
-23.75 46.25 0
-22.5 46.25 0
-21.25 46.25 0
-20 46.25 0
-18.75 46.25 0
-17.5 46.25 0
-16.25 46.25 0
-15 46.25 0
-13.75 46.25 0
-12.5 46.25 0
-11.25 46.25 0
-10 46.25 0
-8.75 46.25 0
-7.5 46.25 0
-6.25 46.25 0
-5 46.25 0
-3.75 46.25 0
-2.5 46.25 0
-1.25 46.25 0
0 46.25 0
1.25 46.25 0
2.5 46.25 0
3.75 46.25 0
5 46.25 0
6.25 46.25 0
7.5 46.25 0
8.75 46.25 0
10 46.25 0
11.25 46.25 0
12.5 46.25 0
13.75 46.25 0
15 46.25 0
16.25 46.25 0
17.5 46.25 0
18.75 46.25 0
20 46.25 0
21.25 46.25 0
22.5 46.25 0
23.75 46.25 0
25 46.25 0
26.25 46.25 0
27.5 46.25 0
28.75 46.25 0
30 46.25 0
31.25 46.25 0
32.5 46.25 0
33.75 46.25 0
35 46.25 0
36.25 46.25 0
37.5 46.25 0
38.75 46.25 0
40 46.25 0
41.25 46.25 0
42.5 46.25 0
43.75 46.25 0
45 46.25 0
46.25 46.25 0
47.5 46.25 0
48.75 46.25 0
-48.75 45 0
-47.5 45 0
-46.25 45 0
-45 45 0
-43.75 45 0
-42.5 45 0
-41.25 45 0
-40 45 0
-38.75 45 0
-37.5 45 0
-36.25 45 0
-35 45 0
-33.75 45 0
-32.5 45 0
-31.25 45 0
-30 45 0
-28.75 45 0
-27.5 45 0
-26.25 45 0
-25 45 0
-23.75 45 0
-22.5 45 0
-21.25 45 0
-20 45 0
-18.75 45 0
-17.5 45 0
-16.25 45 0
-15 45 0
-13.75 45 0
-12.5 45 0
-11.25 45 0
-10 45 0
-8.75 45 0
-7.5 45 0
-6.25 45 0
-5 45 0
-3.75 45 0
-2.5 45 0
-1.25 45 0
0 45 0
1.25 45 0
2.5 45 0
3.75 45 0
5 45 0
6.25 45 0
7.5 45 0
8.75 45 0
10 45 0
11.25 45 0
12.5 45 0
13.75 45 0
15 45 0
16.25 45 0
17.5 45 0
18.75 45 0
20 45 0
21.25 45 0
22.5 45 0
23.75 45 0
25 45 0
26.25 45 0
27.5 45 0
28.75 45 0
30 45 0
31.25 45 0
32.5 45 0
33.75 45 0
35 45 0
36.25 45 0
37.5 45 0
38.75 45 0
40 45 0
41.25 45 0
42.5 45 0
43.75 45 0
45 45 0
46.25 45 0
47.5 45 0
48.75 45 0
-48.75 43.75 0
-47.5 43.75 0
-46.25 43.75 0
-45 43.75 0
-43.75 43.75 0
-42.5 43.75 0
-41.25 43.75 0
-40 43.75 0
-38.75 43.75 0
-37.5 43.75 0
-36.25 43.75 0
-35 43.75 0
-33.75 43.75 0
-32.5 43.75 0
-31.25 43.75 0
-30 43.75 0
-28.75 43.75 0
-27.5 43.75 0
-26.25 43.75 0
-25 43.75 0
-23.75 43.75 0
-22.5 43.75 0
-21.25 43.75 0
-20 43.75 0
-18.75 43.75 0
-17.5 43.75 0
-16.25 43.75 0
-15 43.75 0
-13.75 43.75 0
-12.5 43.75 0
-11.25 43.75 0
-10 43.75 0
-8.75 43.75 0
-7.5 43.75 0
-6.25 43.75 0
-5 43.75 0
-3.75 43.75 0
-2.5 43.75 0
-1.25 43.75 0
0 43.75 0
1.25 43.75 0
2.5 43.75 0
3.75 43.75 0
5 43.75 0
6.25 43.75 0
7.5 43.75 0
8.75 43.75 0
10 43.75 0
11.25 43.75 0
12.5 43.75 0
13.75 43.75 0
15 43.75 0
16.25 43.75 0
17.5 43.75 0
18.75 43.75 0
20 43.75 0
21.25 43.75 0
22.5 43.75 0
23.75 43.75 0
25 43.75 0
26.25 43.75 0
27.5 43.75 0
28.75 43.75 0
30 43.75 0
31.25 43.75 0
32.5 43.75 0
33.75 43.75 0
35 43.75 0
36.25 43.75 0
37.5 43.75 0
38.75 43.75 0
40 43.75 0
41.25 43.75 0
42.5 43.75 0
43.75 43.75 0
45 43.75 0
46.25 43.75 0
47.5 43.75 0
48.75 43.75 0
-48.75 42.5 0
-47.5 42.5 0
-46.25 42.5 0
-45 42.5 0
-43.75 42.5 0
-42.5 42.5 0
-41.25 42.5 0
-40 42.5 0
-38.75 42.5 0
-37.5 42.5 0
-36.25 42.5 0
-35 42.5 0
-33.75 42.5 0
-32.5 42.5 0
-31.25 42.5 0
-30 42.5 0
-28.75 42.5 0
-27.5 42.5 0
-26.25 42.5 0
-25 42.5 0
-23.75 42.5 0
-22.5 42.5 0
-21.25 42.5 0
-20 42.5 0
-18.75 42.5 0
-17.5 42.5 0
-16.25 42.5 0
-15 42.5 0
-13.75 42.5 0
-12.5 42.5 0
-11.25 42.5 0
-10 42.5 0
-8.75 42.5 0
-7.5 42.5 0
-6.25 42.5 0
-5 42.5 0
-3.75 42.5 0
-2.5 42.5 0
-1.25 42.5 0
0 42.5 0
1.25 42.5 0
2.5 42.5 0
3.75 42.5 0
5 42.5 0
6.25 42.5 0
7.5 42.5 0
8.75 42.5 0
10 42.5 0
11.25 42.5 0
12.5 42.5 0
13.75 42.5 0
15 42.5 0
16.25 42.5 0
17.5 42.5 0
18.75 42.5 0
20 42.5 0
21.25 42.5 0
22.5 42.5 0
23.75 42.5 0
25 42.5 0
26.25 42.5 0
27.5 42.5 0
28.75 42.5 0
30 42.5 0
31.25 42.5 0
32.5 42.5 0
33.75 42.5 0
35 42.5 0
36.25 42.5 0
37.5 42.5 0
38.75 42.5 0
40 42.5 0
41.25 42.5 0
42.5 42.5 0
43.75 42.5 0
45 42.5 0
46.25 42.5 0
47.5 42.5 0
48.75 42.5 0
-48.75 41.25 0
-47.5 41.25 0
-46.25 41.25 0
-45 41.25 0
-43.75 41.25 0
-42.5 41.25 0
-41.25 41.25 0
-40 41.25 0
-38.75 41.25 0
-37.5 41.25 0
-36.25 41.25 0
-35 41.25 0
-33.75 41.25 0
-32.5 41.25 0
-31.25 41.25 0
-30 41.25 0
-28.75 41.25 0
-27.5 41.25 0
-26.25 41.25 0
-25 41.25 0
-23.75 41.25 0
-22.5 41.25 0
-21.25 41.25 0
-20 41.25 0
-18.75 41.25 0
-17.5 41.25 0
-16.25 41.25 0
-15 41.25 0
-13.75 41.25 0
-12.5 41.25 0
-11.25 41.25 0
-10 41.25 0
-8.75 41.25 0
-7.5 41.25 0
-6.25 41.25 0
-5 41.25 0
-3.75 41.25 0
-2.5 41.25 0
[...]
POINT_DATA 2962
SCALARS Temperature float 1
LOOKUP_TABLE default
200
500
200
500
206.852
213.693
220.465
227.121
233.614
239.895
245.919
251.639
257.015
262.011
266.601
270.771
274.521
277.861
280.811
283.4
285.659
287.621
289.32
290.788
292.054
293.143
294.081
294.889
295.584
296.183
296.7
297.148
297.536
297.875
298.173
298.437
298.673
298.887
299.084
299.269
299.446
299.62
299.795
299.975
300.165
300.37
300.593
300.841
301.12
301.436
301.797
302.212
302.692
303.246
303.89
304.638
305.509
306.522
307.704
309.08
310.684
312.552
314.725
317.253
320.187
323.587
327.515
332.038
337.224
343.136
349.829
357.346
365.71
374.918
384.944
395.737
407.229
419.338
431.975
445.05
458.472
472.156
486.022
200
200
200
200
200
200
200
200
200
200
200
200
200
200
200
200
200
200
200
200
200
200
200
200
200
200
200
200
200
200
200
200
200
200
200
200
200
200
200
200
200
200
200
200
200
200
200
200
200
200
200
200
200
200
200
200
200
200
200
200
200
200
200
200
200
200
200
200
200
200
200
200
200
200
200
200
200
200
200
207.563
215.112
222.587
229.933
237.095
244.012
250.623
256.86
262.659
267.965
272.737
276.956
280.628
283.783
286.463
288.72
290.61
292.185
293.492
294.575
295.47
296.21
296.821
297.325
297.741
298.085
298.369
298.604
298.799
298.962
299.098
299.212
299.309
299.393
299.466
299.532
299.593
299.652
299.71
299.769
299.833
299.903
299.982
300.073
300.179
300.306
300.456
300.636
300.853
301.115
301.432
301.816
302.281
302.846
303.53
304.36
305.366
306.587
308.066
309.857
312.024
314.64
317.791
321.573
326.093
331.458
337.773
345.128
353.578
363.138
373.772
385.4
397.912
411.18
425.076
439.476
454.266
469.342
484.612
500
500
500
500
500
500
500
500
500
500
500
500
500
500
500
500
500
500
500
500
500
500
500
500
500
500
500
500
500
500
500
500
500
500
500
500
500
500
500
500
500
500
500
500
500
500
500
500
500
500
500
500
500
500
500
500
500
500
500
500
500
500
500
500
500
500
500
500
500
500
500
500
500
500
500
500
500
500
500
486.007
485.899
485.706
485.435
485.092
484.687
484.234
483.748
483.25
482.76
482.298
481.88
481.517
481.211
480.961
480.761
480.604
480.483
480.391
480.321
480.269
480.23
480.201
480.179
480.163
480.152
480.143
480.137
480.132
480.129
480.126
480.124
480.123
480.122
480.121
480.121
480.12
480.12
480.12
480.12
480.12
480.12
480.12
480.12
480.12
480.121
480.121
480.122
480.123
480.124
480.126
480.128
480.131
480.135
480.141
480.149
480.159
480.174
480.193
480.219
480.254
480.302
480.364
480.447
480.556
480.697
480.876
481.099
481.37
481.691
482.055
482.452
482.866
483.276
483.66
484
484.277
484.479
484.594
472.107
471.883
471.491
470.941
470.245
469.423
468.499
467.508
466.491
465.491
464.552
463.707
462.976
462.366
461.871
461.478
461.172
460.937
460.759
460.625
460.524
460.449
460.394
460.353
460.323
460.3
460.284
460.272
460.263
460.257
460.252
460.248
460.246
460.244
460.242
460.241
460.241
460.24
460.24
460.24
460.24
460.24
460.24
460.24
460.241
460.241
460.242
460.243
460.245
460.247
460.251
460.255
460.261
460.269
460.28
460.295
460.315
460.342
460.379
460.429
460.497
460.587
460.709
460.869
461.081
461.355
461.707
462.15
462.692
463.337
464.077
464.888
465.736
466.577
467.366
468.062
468.63
469.045
469.286
458.383
458.035
457.435
456.593
455.526
454.26
452.833
451.296
449.714
448.162
446.711
445.419
444.315
443.406
442.678
442.108
441.669
441.335
441.083
440.894
440.754
440.65
440.573
440.516
440.474
440.443
440.421
440.404
440.392
440.383
440.376
440.371
440.368
440.365
440.363
440.362
440.361
440.36
440.36
440.36
440.359
440.359
440.36
440.36
440.361
440.362
440.363
440.364
440.367
440.37
440.374
440.38
440.388
440.4
440.415
440.435
440.463
440.501
440.552
440.622
440.716
440.843
441.013
441.24
441.541
441.937
442.449
443.1
443.911
444.89
446.026
447.287
448.613
449.93
451.165
452.251
453.137
453.783
454.165
444.917
444.439
443.62
442.469
441.005
439.258
437.276
435.127
432.908
430.731
428.712
426.941
425.46
424.265
423.328
422.608
422.061
421.65
421.344
421.116
420.948
420.823
420.732
420.664
420.614
420.578
420.551
420.531
420.517
420.506
420.499
420.493
420.489
420.486
420.483
420.482
420.481
420.48
420.479
420.479
420.479
420.479
420.479
420.48
420.48
420.481
420.483
420.485
420.488
420.491
420.497
420.504
420.513
420.526
420.544
420.568
420.601
420.646
420.707
420.79
420.903
421.055
421.261
421.538
421.908
422.401
423.05
423.892
424.962
426.284
427.852
429.621
431.498
433.366
435.112
436.641
437.882
438.786
439.323
431.798
431.184
430.136
428.659
426.768
424.493
421.884
419.03
416.059
413.143
410.466
408.174
406.317
404.867
403.762
402.933
402.317
401.861
401.526
401.279
401.097
400.964
400.866
400.794
400.742
400.703
400.675
400.654
400.638
400.627
400.619
400.613
400.609
400.605
400.603
400.601
400.6
400.599
400.599
400.598
400.598
400.598
400.599
400.599
400.6
400.601
400.603
400.605
400.608
400.611
400.617
400.624
400.634
400.648
400.667
400.693
400.728
400.775
400.84
400.929
401.049
401.214
401.437
401.741
402.153
402.71
403.459
404.456
405.762
407.43
409.478
411.847
414.392
416.925
419.277
421.319
422.964
424.157
424.866
419.115
418.364
417.08
415.263
412.916
410.059
406.739
403.049
399.156
395.314
391.835
388.973
386.766
385.123
383.92
383.046
382.413
381.953
381.619
381.376
381.198
381.069
380.974
380.905
380.855
380.818
380.79
380.77
380.756
380.745
380.737
380.732
380.727
380.724
380.722
380.72
380.719
380.719
380.718
380.718
380.718
380.718
380.718
380.718
380.719
380.72
380.722
380.724
380.726
380.73
380.735
380.742
380.752
380.765
380.783
380.808
380.841
380.887
380.95
381.035
381.153
381.313
381.533
381.836
382.252
382.827
383.619
384.71
386.2
388.198
390.78
393.899
397.297
400.664
403.751
406.395
408.498
410.011
410.908
406.962
406.075
404.558
402.396
399.575
396.09
391.962
387.27
382.203
377.124
372.585
369.119
366.653
364.939
363.749
362.919
362.334
361.918
361.621
361.407
361.252
361.139
361.057
360.998
360.954
360.922
360.899
360.882
360.869
360.86
360.854
360.849
360.845
360.842
360.84
360.839
360.838
360.837
360.837
360.837
360.837
360.837
360.837
360.837
360.838
360.839
360.84
360.842
360.844
360.847
360.852
360.858
360.866
360.877
360.893
360.914
360.943
360.982
361.036
361.11
361.212
361.353
361.547
361.817
362.194
362.726
363.482
364.565
366.129
368.382
371.546
375.673
380.232
384.682
388.67
392.011
394.623
396.479
397.575
395.429
394.417
392.68
390.188
386.898
382.764
377.75
371.867
365.262
358.393
352.261
348.263
345.787
344.229
343.22
342.546
342.086
341.766
341.54
341.378
341.263
341.179
341.118
341.074
341.042
341.018
341.001
340.989
340.98
340.973
340.968
340.964
340.962
340.96
340.958
340.957
340.957
340.956
340.956
340.956
340.955
340.955
340.956
340.956
340.956
340.957
340.958
340.959
340.961
340.963
340.967
340.971
340.977
340.985
340.997
341.012
341.034
341.063
341.103
341.158
341.234
341.339
341.485
341.69
341.982
342.401
343.016
343.94
345.37
347.653
351.348
357.016
363.277
369.162
374.236
378.355
381.504
383.709
385
384.601
383.482
381.558
378.777
375.065
370.319
364.406
357.184
348.586
338.925
329.804
325.887
324.001
322.972
322.354
321.961
321.699
321.519
321.394
321.305
321.241
321.196
321.163
321.139
321.121
321.108
321.099
321.092
321.087
321.084
321.081
321.079
321.078
321.076
321.076
321.075
321.075
321.075
321.074
321.074
321.074
321.074
321.074
321.074
321.075
321.075
321.076
321.076
321.077
321.078
321.08
321.083
321.086
321.09
321.097
321.105
321.117
321.132
321.154
321.184
321.226
321.283
321.364
321.478
321.641
321.88
322.241
322.808
323.759
325.512
329.179
337.765
346.696
354.455
360.756
365.67
369.33
371.852
373.317
374.551
373.354
371.291
368.297
364.266
359.04
352.372
343.879
332.972
318.917
302.143
301.481
301.36
301.301
301.266
301.243
301.228
301.218
301.211
301.206
301.202
301.2
301.198
301.197
301.196
301.195
301.194
301.194
301.194
301.193
301.193
301.193
301.193
301.193
301.193
301.193
301.193
301.193
301.193
301.193
301.193
301.193
301.193
301.193
301.193
301.193
301.193
301.193
301.193
301.193
301.193
301.193
301.194
301.194
301.194
301.195
301.195
301.196
301.197
301.199
301.201
301.205
301.209
301.216
301.225
301.239
301.259
301.292
301.346
301.459
302.089
318.168
331.289
341.205
348.663
354.238
358.294
361.051
362.643
365.329
364.091
361.957
358.853
354.663
349.202
342.162
332.989
320.505
301.627
301.53
319.088
330.413
338.453
344.327
348.556
351.417
353.065
356.965
355.726
353.591
350.495
346.332
340.942
334.086
325.41
314.431
300.833
300.759
313.118
322.908
330.408
336.059
340.186
342.997
344.621
349.459
348.255
346.188
343.205
339.227
334.148
327.832
320.132
310.977
300.624
300.552
309.717
317.694
324.211
329.317
333.131
335.764
337.296
342.786
341.648
339.7
336.908
333.224
328.592
322.96
316.309
308.722
300.495
300.426
307.504
313.94
319.427
323.866
327.257
329.632
331.024
336.902
335.851
334.057
331.504
328.169
324.037
319.107
313.423
307.107
300.403
300.336
305.932
311.134
315.689
319.463
322.4
324.482
325.711
331.749
330.796
329.174
326.88
323.912
320.278
316.008
311.168
305.88
300.333
300.27
304.755
308.975
312.733
315.899
318.396
320.185
321.247
327.259
326.408
324.964
322.931
320.321
317.156
313.479
309.362
304.913
300.278
300.218
303.843
307.278
310.369
313.003
315.101
316.615
317.517
323.364
322.614
321.343
319.56
317.284
314.545
311.391
307.888
304.131
300.234
300.177
303.122
305.924
308.463
310.642
312.391
313.659
314.414
319.996
319.342
318.232
316.681
314.709
312.35
309.65
306.669
303.488
300.198
300.144
302.544
304.833
306.916
308.713
310.161
311.214
311.841
317.091
316.525
315.564
314.222
312.523
310.497
308.189
305.652
302.953
300.167
300.118
302.076
303.947
305.655
307.133
308.327
309.196
309.711
314.59
314.105
313.277
312.122
310.662
308.927
306.956
304.797
302.504
300.142
300.096
301.696
303.225
304.624
305.836
306.817
307.53
307.952
312.44
312.026
311.316
310.326
309.076
307.593
305.912
304.074
302.126
300.12
300.078
301.385
302.635
303.779
304.771
305.574
306.157
306.499
310.593
310.242
309.636
308.79
307.723
306.458
305.025
303.462
301.806
300.102
300.064
301.13
302.151
303.085
303.896
304.551
305.026
305.301
309.008
308.711
308.197
307.476
306.566
305.489
304.27
302.941
301.534
300.087
300.052
300.922
301.754
302.515
303.176
303.709
304.093
304.313
307.648
307.399
306.963
306.351
305.578
304.662
303.626
302.497
301.302
300.074
300.043
300.75
301.427
302.047
302.583
303.015
303.324
303.499
306.48
306.273
305.906
305.388
304.732
303.955
303.076
302.118
301.105
300.063
300.035
300.609
301.159
301.661
302.095
302.443
302.691
302.827
305.479
305.307
304.999
304.562
304.008
303.35
302.606
301.794
300.936
300.053
300.028
300.493
300.938
301.343
301.693
301.972
302.169
302.274
304.618
304.478
304.221
303.854
303.386
302.831
302.203
301.517
300.791
300.045
300.023
300.397
300.756
301.082
301.362
301.584
301.738
301.817
303.879
303.766
303.552
303.245
302.853
302.386
301.857
301.279
300.667
300.038
300.018
300.319
300.605
300.866
301.089
301.264
301.383
301.441
303.243
303.153
302.977
302.722
302.395
302.004
301.56
301.074
300.56
300.032
300.014
300.253
300.481
300.688
300.863
300.999
301.09
301.13
302.695
302.625
302.482
302.272
302
301.675
301.304
300.898
300.469
300.027
300.011
300.2
300.379
300.54
300.677
300.781
300.847
300.872
302.222
302.169
302.054
301.883
301.659
301.39
301.083
300.747
300.39
300.022
300.009
300.155
300.294
300.418
300.522
300.6
300.647
300.659
301.812
301.773
301.684
301.546
301.364
301.144
300.892
300.615
300.321
300.018
300.007
300.118
300.224
300.317
300.394
300.449
300.48
300.483
301.455
301.43
301.361
301.253
301.107
300.93
300.726
300.501
300.262
300.015
300.005
300.087
300.165
300.233
300.287
300.324
300.341
300.335
301.143
301.129
301.079
300.996
300.883
300.743
300.58
300.401
300.209
300.012
300.003
300.062
300.116
300.162
300.197
300.219
300.224
300.211
300.867
300.863
300.83
300.77
300.685
300.577
300.452
300.313
300.163
300.009
300.002
300.04
300.074
300.102
300.122
300.13
300.126
300.107
300.622
300.627
300.609
300.569
300.508
300.43
300.338
300.234
300.123
300.007
300.001
300.021
300.038
300.051
300.057
300.054
300.041
300.018
300.402
300.415
300.41
300.387
300.35
300.298
300.235
300.164
300.086
300.005
300
300.005
300.007
300.007
300.001
299.988
299.968
299.94
300.2
300.22
300.227
300.222
300.204
300.177
300.141
300.099
300.052
300.003
299.999
299.99
299.98
299.967
299.951
299.93
299.904
299.871
300.012
300.04
300.058
300.068
300.07
300.065
300.054
300.039
300.021
300.001
299.999
299.977
299.955
299.932
299.906
299.877
299.845
299.809
299.834
299.868
299.897
299.921
299.941
299.958
299.971
299.982
299.991
299.999
299.998
299.965
299.932
299.898
299.863
299.827
299.79
299.751
299.661
299.701
299.741
299.779
299.817
299.854
299.891
299.927
299.962
299.998
299.997
299.953
299.909
299.866
299.822
299.779
299.736
299.694
299.489
299.536
299.585
299.638
299.693
299.751
299.81
299.871
299.934
299.996
299.997
299.941
299.887
299.833
299.781
299.73
299.682
299.636
299.314
299.367
299.427
299.494
299.567
299.646
299.729
299.815
299.904
299.995
299.996
299.929
299.863
299.799
299.737
299.679
299.626
299.577
299.131
299.191
299.262
299.344
299.436
299.536
299.644
299.757
299.874
299.993
299.995
299.915
299.837
299.761
299.69
299.624
299.565
299.512
298.937
299.003
299.086
299.184
299.296
299.419
299.553
299.695
299.841
299.991
299.994
299.9
299.808
299.72
299.638
299.563
299.497
299.44
298.725
298.8
298.895
299.011
299.144
299.293
299.455
299.627
299.806
299.989
299.993
299.883
299.775
299.673
299.578
299.493
299.419
299.357
298.492
298.575
298.685
298.819
298.976
299.153
299.346
299.552
299.767
299.987
299.992
299.863
299.737
299.618
299.509
299.412
299.329
299.262
298.232
298.324
298.45
298.605
298.789
298.996
299.225
299.469
299.724
299.984
299.991
299.84
299.693
299.554
299.428
299.317
299.223
299.15
297.938
298.041
298.184
298.363
298.577
298.82
299.087
299.374
299.674
299.982
299.989
299.812
299.64
299.478
299.331
299.203
299.098
299.017
297.603
297.718
297.881
298.088
298.335
298.618
298.931
299.267
299.618
299.978
299.987
299.778
299.576
299.387
299.216
299.068
298.948
298.857
297.219
297.348
297.533
297.772
298.058
298.387
298.751
299.143
299.554
299.975
299.985
299.738
299.5
299.277
299.077
298.905
298.767
298.666
296.776
296.922
297.133
297.408
297.739
298.12
298.544
299.001
299.48
299.971
299.982
299.69
299.408
299.145
298.909
298.709
298.549
298.435
296.265
296.429
296.671
296.986
297.369
297.812
298.304
298.835
299.393
299.966
299.979
299.632
299.296
298.985
298.707
298.472
298.287
298.157
295.673
295.858
296.135
296.498
296.94
297.453
298.025
298.643
299.293
299.96
299.975
299.561
299.161
298.791
298.462
298.185
297.968
297.819
294.987
295.195
295.512
295.93
296.441
297.036
297.7
298.419
299.176
299.953
299.97
299.475
298.998
298.556
298.165
297.837
297.583
297.411
294.189
294.425
294.787
295.268
295.859
296.548
297.32
298.157
299.039
299.946
299.964
299.37
298.799
298.271
297.804
297.415
297.116
296.916
293.261
293.529
293.944
294.497
295.18
295.978
296.875
297.849
298.878
299.936
299.957
299.243
298.557
297.924
297.366
296.903
296.55
296.317
292.183
292.487
292.961
293.597
294.385
295.309
296.351
297.487
298.689
299.926
299.948
299.087
298.261
297.501
296.833
296.281
295.863
295.59
290.931
291.275
291.815
292.545
293.453
294.523
295.734
297.059
298.464
299.913
299.938
298.897
297.9
296.985
296.185
295.527
295.03
294.71
289.478
289.866
290.481
291.315
292.359
293.596
295.003
296.55
298.197
299.898
299.924
298.663
297.458
296.355
295.395
294.61
294.021
293.646
287.794
288.23
288.926
289.876
291.072
292.499
294.133
295.94
297.875
299.88
299.908
298.374
296.912
295.582
294.431
293.495
292.8
292.36
285.848
286.335
287.116
288.192
289.555
291.194
293.089
295.204
297.484
299.857
299.887
298.014
296.236
294.629
293.251
292.141
291.322
290.81
283.606
284.144
285.014
286.219
287.761
289.634
291.825
294.301
297.001
299.83
299.862
297.558
295.387
293.448
291.804
290.494
289.539
288.946
281.033
281.62
282.575
283.91
285.634
287.757
290.277
293.175
296.388
299.795
299.828
296.97
294.308
291.97
290.023
288.494
287.392
286.716
278.097
278.726
279.758
281.212
283.11
285.481
288.352
291.732
295.581
299.749
299.783
296.184
292.905
290.102
287.823
286.067
284.819
284.062
274.768
275.429
276.521
278.069
280.112
282.706
285.918
289.821
294.453
299.685
299.72
295.077
291.028
287.71
285.098
283.132
281.756
280.929
271.023
271.702
272.827
274.43
276.565
279.313
282.792
287.183
292.725
299.58
299.617
293.375
288.42
284.612
281.729
279.608
278.143
277.271
266.852
267.53
268.653
270.259
272.406
275.187
278.756
283.392
289.685
299.182
299.23
290.385
284.664
280.589
277.597
275.427
273.938
273.055
262.255
262.912
263.998
265.547
267.612
270.273
273.653
277.943
283.44
290.509
298.926
299.259
299.319
299.349
299.367
299.378
299.386
299.391
299.394
299.397
299.399
299.4
299.401
299.402
299.402
299.403
299.403
299.403
299.403
299.403
299.403
299.403
299.403
299.403
299.404
299.404
299.404
299.404
299.404
299.404
299.404
299.404
299.404
299.404
299.404
299.404
299.404
299.404
299.403
299.403
299.403
299.403
299.403
299.403
299.403
299.403
299.402
299.402
299.401
299.4
299.399
299.398
299.395
299.392
299.387
299.38
299.37
299.354
299.326
299.269
298.953
290.878
284.27
279.263
275.484
272.644
270.563
269.128
268.274
257.247
257.863
258.879
260.32
262.223
264.64
267.638
271.288
275.624
280.487
285.07
287.04
287.989
288.507
288.818
289.016
289.148
289.239
289.302
289.347
289.379
289.402
289.418
289.43
289.439
289.446
289.45
289.454
289.456
289.458
289.46
289.46
289.461
289.462
289.462
289.462
289.463
289.463
289.463
289.463
289.463
289.463
289.463
289.463
289.463
289.462
289.462
289.462
289.461
289.461
289.46
289.459
289.457
289.455
289.452
289.447
289.441
289.433
289.422
289.407
289.386
289.357
289.317
289.259
289.176
289.056
288.874
288.587
288.108
287.224
285.378
281.058
276.556
272.634
269.439
266.934
265.053
263.738
262.948
251.853
252.416
253.336
254.63
256.319
258.427
260.972
263.948
267.282
270.743
273.829
275.841
277.088
277.873
278.381
278.72
278.952
279.114
279.228
279.309
279.367
279.41
279.44
279.462
279.479
279.49
279.499
279.505
279.51
279.514
279.516
279.518
279.519
279.52
279.521
279.521
279.522
279.522
279.522
279.522
279.522
279.522
279.522
279.522
279.522
279.521
279.521
279.52
279.519
279.518
279.517
279.514
279.511
279.507
279.501
279.493
279.483
279.468
279.448
279.42
279.382
279.329
279.255
279.151
279.004
278.792
278.481
278.015
277.293
276.141
274.278
271.421
268.259
265.28
262.703
260.599
258.976
257.822
257.12
246.112
246.61
247.419
248.545
249.996
251.776
253.874
256.251
258.812
261.374
263.662
265.408
266.651
267.514
268.113
268.532
268.827
269.036
269.186
269.294
269.372
269.429
269.47
269.5
269.522
269.538
269.55
269.559
269.565
269.57
269.573
269.576
269.577
269.579
269.58
269.58
269.581
269.581
269.582
269.582
269.582
269.582
269.582
269.581
269.581
269.581
269.58
269.579
269.578
269.576
269.574
269.571
269.567
269.561
269.553
269.543
269.528
269.508
269.481
269.443
269.392
269.321
269.223
269.086
268.895
268.627
268.245
267.698
266.908
265.77
264.173
262.087
259.781
257.524
255.494
253.782
252.431
251.453
250.851
240.065
240.494
241.184
242.134
243.345
244.808
246.498
248.37
250.339
252.28
254.036
255.479
256.592
257.42
258.026
258.467
258.787
259.018
259.187
259.309
259.399
259.464
259.512
259.547
259.572
259.591
259.604
259.615
259.622
259.627
259.631
259.634
259.636
259.638
259.639
259.64
259.64
259.641
259.641
259.641
259.641
259.641
259.641
259.641
259.64
259.64
259.639
259.638
259.637
259.635
259.632
259.629
259.624
259.617
259.608
259.596
259.579
259.555
259.524
259.481
259.421
259.34
259.229
259.076
258.865
258.575
258.174
257.623
256.87
255.86
254.554
252.975
251.253
249.541
247.965
246.606
245.513
244.709
244.208
233.761
234.119
234.687
235.464
236.443
237.611
238.941
240.391
241.896
243.371
244.723
245.88
246.817
247.548
248.105
248.523
248.834
249.064
249.233
249.358
249.449
249.517
249.566
249.602
249.629
249.648
249.662
249.673
249.681
249.686
249.69
249.693
249.696
249.697
249.698
249.699
249.7
249.7
249.701
249.701
249.701
249.701
249.701